
     Program PWSCF v.6.7MaX starts on  8Dec2021 at 10:22:52 

     This program is part of the open-source Quantum ESPRESSO suite
     for quantum simulation of materials; please cite
         "P. Giannozzi et al., J. Phys.:Condens. Matter 21 395502 (2009);
         "P. Giannozzi et al., J. Phys.:Condens. Matter 29 465901 (2017);
          URL http://www.quantum-espresso.org", 
     in publications or presentations arising from this work. More details at
     http://www.quantum-espresso.org/quote

     Serial multi-threaded version, running on    8 processor cores
     Waiting for input...
     Reading input from standard input

     Current dimensions of program PWSCF are:
     Max number of different atomic species (ntypx) = 10
     Max number of k-points (npk) =  40000
     Max angular momentum in pseudopotentials (lmaxx) =  3

     gamma-point specific algorithms are used
     Message from routine find_sym:
     Not a group! Trying with lower acceptance parameter...
     Message from routine find_sym:
     Still not a group! symmetry disabled

     G-vector sticks info
     --------------------
     sticks:   dense  smooth     PW     G-vecs:    dense   smooth      PW
     Sum        2689    1891    475               225269   132015   16427



     bravais-lattice index     =            4
     lattice parameter (alat)  =      13.9629  a.u.
     unit-cell volume          =    4715.0297 (a.u.)^3
     number of atoms/cell      =           17
     number of atomic types    =            1
     number of electrons       =        68.00
     number of Kohn-Sham states=           41
     kinetic-energy cutoff     =      35.0000  Ry
     charge density cutoff     =     200.0000  Ry
     scf convergence threshold =      1.0E-08
     mixing beta               =       0.7000
     number of iterations used =            8  plain     mixing
     energy convergence thresh.=      1.0E-04
     force convergence thresh. =      1.0E-03
     Exchange-correlation= PBE
                           (   1   4   3   4   0   0   0)
     nstep                     =           50


     celldm(1)=  13.962867  celldm(2)=   0.000000  celldm(3)=   2.000000
     celldm(4)=   0.000000  celldm(5)=   0.000000  celldm(6)=   0.000000

     crystal axes: (cart. coord. in units of alat)
               a(1) = (   1.000000   0.000000   0.000000 )  
               a(2) = (  -0.500000   0.866025   0.000000 )  
               a(3) = (   0.000000   0.000000   2.000000 )  

     reciprocal axes: (cart. coord. in units 2 pi/alat)
               b(1) = (  1.000000  0.577350 -0.000000 )  
               b(2) = (  0.000000  1.154701  0.000000 )  
               b(3) = (  0.000000 -0.000000  0.500000 )  


     PseudoPot. # 1 for C  read from file:
     /home/lucia/Programmi/qe-6.7/pseudo/C.pbe-n-rrkjus_psl.1.0.0.UPF
     MD5 check sum: 3eea53a8c0c024778a530aaaebd3d0de
     Pseudo is Ultrasoft + core correction, Zval =  4.0
     Generated using &quot;atomic&quot; code by A. Dal Corso  v.6.3MaX
     Using radial grid of 1073 points,  4 beta functions with: 
                l(1) =   0
                l(2) =   0
                l(3) =   1
                l(4) =   1
     Q(r) pseudized with 0 coefficients 


     atomic species   valence    mass     pseudopotential
        C              4.00    12.01070     C ( 1.00)

     No symmetry found



   Cartesian axes

     site n.     atom                  positions (alat units)
         1           C   tau(   1) = (   0.0000000   0.0000000   0.0000000  )
         2           C   tau(   2) = (  -0.1666670   0.2886757   0.0000000  )
         3           C   tau(   3) = (  -0.3333340   0.5773514   0.0000000  )
         4           C   tau(   4) = (   0.3333340   0.0000000   0.0000000  )
         5           C   tau(   5) = (   0.1666670   0.2886757   0.0000000  )
         6           C   tau(   6) = (   0.0000000   0.5773514   0.0000000  )
         7           C   tau(   7) = (   0.6666680   0.0000000   0.0000000  )
         8           C   tau(   8) = (   0.5000010   0.2886757   0.0000000  )
         9           C   tau(   9) = (   0.3333340   0.5773514   0.0000000  )
        10           C   tau(  10) = (   0.0000000   0.1924505   0.0000000  )
        11           C   tau(  11) = (  -0.1666670   0.4811262   0.0000000  )
        12           C   tau(  12) = (  -0.3333340   0.7698019   0.0000000  )
        13           C   tau(  13) = (   0.3333340   0.1924505   0.0000000  )
        14           C   tau(  14) = (   0.0000000   0.7698019   0.0000000  )
        15           C   tau(  15) = (   0.6666680   0.1924505   0.0000000  )
        16           C   tau(  16) = (   0.5000010   0.4811262   0.0000000  )
        17           C   tau(  17) = (   0.3333340   0.7698019   0.0000000  )

     number of k points=     1  Gaussian smearing, width (Ry)=  0.0100
                       cart. coord. in units 2pi/alat
        k(    1) = (   0.0000000   0.0000000   0.0000000), wk =   2.0000000

     Dense  grid:   112635 G-vectors     FFT dimensions: (  72,  64, 125)

     Smooth grid:    66008 G-vectors     FFT dimensions: (  54,  54, 108)

     Estimated max dynamical RAM per process >     267.61 MB

     Check: negative core charge=   -0.000025

     Initial potential from superposition of free atoms

     starting charge   67.99929, renormalised to   68.00000

     negative rho (up, down):  3.957E-04 0.000E+00
     Starting wfcs are   68 randomized atomic wfcs

     total cpu time spent up to now is        1.7 secs

     Self-consistent Calculation

     iteration #  1     ecut=    35.00 Ry     beta= 0.70
     Davidson diagonalization with overlap
     ethr =  1.00E-02,  avg # of iterations =  2.0

     negative rho (up, down):  8.332E-04 0.000E+00

     total cpu time spent up to now is        4.5 secs

     total energy              =    -209.98512851 Ry
     estimated scf accuracy    <       1.93750792 Ry

     iteration #  2     ecut=    35.00 Ry     beta= 0.70
     Davidson diagonalization with overlap
     ethr =  2.85E-03,  avg # of iterations =  3.0

     negative rho (up, down):  4.888E-03 0.000E+00

     total cpu time spent up to now is        7.2 secs

     total energy              =    -209.51062577 Ry
     estimated scf accuracy    <       5.76077999 Ry

     iteration #  3     ecut=    35.00 Ry     beta= 0.70
     Davidson diagonalization with overlap
     ethr =  2.85E-03,  avg # of iterations =  4.0

     negative rho (up, down):  1.582E-03 0.000E+00

     total cpu time spent up to now is        9.7 secs

     total energy              =    -210.45822189 Ry
     estimated scf accuracy    <       0.65234782 Ry

     iteration #  4     ecut=    35.00 Ry     beta= 0.70
     Davidson diagonalization with overlap
     ethr =  9.59E-04,  avg # of iterations =  2.0

     negative rho (up, down):  2.192E-03 0.000E+00

     total cpu time spent up to now is       12.1 secs

     total energy              =    -210.49259660 Ry
     estimated scf accuracy    <       0.24615818 Ry

     iteration #  5     ecut=    35.00 Ry     beta= 0.70
     Davidson diagonalization with overlap
     ethr =  3.62E-04,  avg # of iterations =  2.0

     negative rho (up, down):  2.075E-03 0.000E+00

     total cpu time spent up to now is       14.2 secs

     total energy              =    -210.50588971 Ry
     estimated scf accuracy    <       0.12974797 Ry

     iteration #  6     ecut=    35.00 Ry     beta= 0.70
     Davidson diagonalization with overlap
     ethr =  1.91E-04,  avg # of iterations =  1.0

     negative rho (up, down):  1.872E-03 0.000E+00

     total cpu time spent up to now is       17.1 secs

     total energy              =    -210.51087862 Ry
     estimated scf accuracy    <       0.04540266 Ry

     iteration #  7     ecut=    35.00 Ry     beta= 0.70
     Davidson diagonalization with overlap
     ethr =  6.68E-05,  avg # of iterations =  2.0

     negative rho (up, down):  1.649E-03 0.000E+00

     total cpu time spent up to now is       19.8 secs

     total energy              =    -210.50637099 Ry
     estimated scf accuracy    <       0.01974422 Ry

     iteration #  8     ecut=    35.00 Ry     beta= 0.70
     Davidson diagonalization with overlap
     ethr =  2.90E-05,  avg # of iterations =  4.0

     negative rho (up, down):  1.600E-03 0.000E+00

     total cpu time spent up to now is       22.9 secs

     total energy              =    -210.50846628 Ry
     estimated scf accuracy    <       0.01431401 Ry

     iteration #  9     ecut=    35.00 Ry     beta= 0.70
     Davidson diagonalization with overlap
     ethr =  2.11E-05,  avg # of iterations = 15.0

     negative rho (up, down):  1.585E-03 0.000E+00

     total cpu time spent up to now is       26.5 secs

     total energy              =    -210.50963111 Ry
     estimated scf accuracy    <       0.00092207 Ry

     iteration # 10     ecut=    35.00 Ry     beta= 0.70
     Davidson diagonalization with overlap
     ethr =  1.36E-06,  avg # of iterations =  2.0

     negative rho (up, down):  1.590E-03 0.000E+00

     total cpu time spent up to now is       29.3 secs

     total energy              =    -210.50971141 Ry
     estimated scf accuracy    <       0.00094833 Ry

     iteration # 11     ecut=    35.00 Ry     beta= 0.70
     Davidson diagonalization with overlap
     ethr =  1.36E-06,  avg # of iterations =  2.0

     negative rho (up, down):  1.591E-03 0.000E+00

     total cpu time spent up to now is       32.3 secs

     total energy              =    -210.50972705 Ry
     estimated scf accuracy    <       0.00062141 Ry

     iteration # 12     ecut=    35.00 Ry     beta= 0.70
     Davidson diagonalization with overlap
     ethr =  9.14E-07,  avg # of iterations =  1.0

     negative rho (up, down):  1.591E-03 0.000E+00

     total cpu time spent up to now is       35.1 secs

     total energy              =    -210.50966058 Ry
     estimated scf accuracy    <       0.00036338 Ry

     iteration # 13     ecut=    35.00 Ry     beta= 0.70
     Davidson diagonalization with overlap
     ethr =  5.34E-07,  avg # of iterations =  2.0

     negative rho (up, down):  1.588E-03 0.000E+00

     total cpu time spent up to now is       38.0 secs

     total energy              =    -210.50970649 Ry
     estimated scf accuracy    <       0.00012421 Ry

     iteration # 14     ecut=    35.00 Ry     beta= 0.70
     Davidson diagonalization with overlap
     ethr =  1.83E-07,  avg # of iterations =  1.0

     negative rho (up, down):  1.588E-03 0.000E+00

     total cpu time spent up to now is       40.9 secs

     total energy              =    -210.50971452 Ry
     estimated scf accuracy    <       0.00000578 Ry

     iteration # 15     ecut=    35.00 Ry     beta= 0.70
     Davidson diagonalization with overlap
     ethr =  8.50E-09,  avg # of iterations =  4.0

     negative rho (up, down):  1.588E-03 0.000E+00

     total cpu time spent up to now is       43.8 secs

     total energy              =    -210.50971502 Ry
     estimated scf accuracy    <       0.00000235 Ry

     iteration # 16     ecut=    35.00 Ry     beta= 0.70
     Davidson diagonalization with overlap
     ethr =  3.46E-09,  avg # of iterations =  1.0

     negative rho (up, down):  1.588E-03 0.000E+00

     total cpu time spent up to now is       46.4 secs

     total energy              =    -210.50971507 Ry
     estimated scf accuracy    <       0.00000059 Ry

     iteration # 17     ecut=    35.00 Ry     beta= 0.70
     Davidson diagonalization with overlap
     ethr =  8.62E-10,  avg # of iterations =  3.0

     negative rho (up, down):  1.588E-03 0.000E+00

     total cpu time spent up to now is       49.2 secs

     total energy              =    -210.50971511 Ry
     estimated scf accuracy    <       0.00000026 Ry

     iteration # 18     ecut=    35.00 Ry     beta= 0.70
     Davidson diagonalization with overlap
     ethr =  3.77E-10,  avg # of iterations =  4.0

     negative rho (up, down):  1.588E-03 0.000E+00

     total cpu time spent up to now is       52.0 secs

     total energy              =    -210.50971514 Ry
     estimated scf accuracy    <       0.00000007 Ry

     iteration # 19     ecut=    35.00 Ry     beta= 0.70
     Davidson diagonalization with overlap
     ethr =  1.09E-10,  avg # of iterations =  1.0

     negative rho (up, down):  1.588E-03 0.000E+00

     total cpu time spent up to now is       54.7 secs

     End of self-consistent calculation

          k = 0.0000 0.0000 0.0000 (  8214 PWs)   bands (ev):

   -21.4190 -19.1108 -19.1107 -19.0821 -18.7846 -18.7845 -17.1122 -14.7223
   -14.4973 -14.4972 -13.2765 -12.4691 -12.4691 -11.7357 -11.7238 -11.7237
   -10.6859 -10.6858  -9.4313  -7.9840  -7.9480  -7.9479  -7.9100  -7.2290
    -6.7043  -6.6568  -6.6567  -6.5262  -6.5261  -6.0716  -6.0715  -4.8838
    -1.9708  -1.9291  -1.9291  -1.7377  -1.7376  -0.2529   1.0566   1.7895
     2.0685

     the Fermi energy is    -1.9075 ev

!    total energy              =    -210.50971514 Ry
     estimated scf accuracy    <          7.7E-09 Ry
     smearing contrib. (-TS)   =      -0.01792273 Ry
     internal energy E=F+TS    =    -210.49179242 Ry

     The total energy is F=E-TS. E is the sum of the following terms:
     one-electron contribution =   -1247.11910454 Ry
     hartree contribution      =     635.29567777 Ry
     xc contribution           =     -78.14952009 Ry
     ewald contribution        =     479.48115445 Ry

     convergence has been achieved in  19 iterations

     negative rho (up, down):  1.588E-03 0.000E+00

     Forces acting on atoms (cartesian axes, Ry/au):

     atom    1 type  1   force =     0.06325605   -0.03623148   -0.00000001
     atom    2 type  1   force =    -0.01920694   -0.01124664    0.00000013
     atom    3 type  1   force =    -0.00034425    0.07286111    0.00000015
     atom    4 type  1   force =    -0.06292672   -0.03625203   -0.00000011
     atom    5 type  1   force =     0.00019559   -0.08468462   -0.00000000
     atom    6 type  1   force =    -0.07309393    0.04205098    0.00000001
     atom    7 type  1   force =     0.00015276    0.02261928    0.00000001
     atom    8 type  1   force =     0.01967336   -0.01124085   -0.00000007
     atom    9 type  1   force =     0.07243775    0.04211020    0.00000025
     atom   10 type  1   force =    -0.00339030    0.10564505   -0.00000003
     atom   11 type  1   force =     0.08967732   -0.05591726   -0.00000033
     atom   12 type  1   force =    -0.00029199   -0.00004621   -0.00000013
     atom   13 type  1   force =     0.00397484    0.10562848    0.00000012
     atom   14 type  1   force =     0.09298676   -0.04969849    0.00000012
     atom   15 type  1   force =     0.00025284    0.00002691    0.00000005
     atom   16 type  1   force =    -0.08971889   -0.05588505    0.00000007
     atom   17 type  1   force =    -0.09363422   -0.04973938   -0.00000023

     Total force =     0.325216     Total SCF correction =     0.000177

     BFGS Geometry Optimization
     Energy error            =      0.0E+00
     Gradient error          =      1.1E-01

     number of scf cycles    =   1
     number of bfgs steps    =   0

     energy   new            =    -210.5097151442 Ry

     new trust radius        =       0.1060253449 bohr
     new conv_thr            =       0.0000000100 Ry


ATOMIC_POSITIONS (angstrom)
C             0.0334736607       -0.0191728719       -0.0000000062
C            -1.2416381331        2.1270245136        0.0000000697
C            -2.4631306796        4.3045083982        0.0000000783
C             2.4296491240       -0.0191837502       -0.0000000570
C             1.2315777552        2.0881628068       -0.0000000021
C            -0.0386796429        4.2882043787        0.0000000061
C             4.9259778582        0.0119696070        0.0000000029
C             3.7048334596        2.1270275754       -0.0000000368
C             2.5012809169        4.2882357134        0.0000001338
C            -0.0017940718        1.4778890142       -0.0000000151
C            -1.1840190629        3.5253699028       -0.0000001750
C            -2.4631030258        5.6879115681       -0.0000000682
C             2.4650519047        1.4778802475        0.0000000660
C             0.0492064724        5.6616367100        0.0000000649
C             4.9260308187        1.4219983028        0.0000000238
C             3.6469455763        3.5253869445        0.0000000385
C             2.4133994136        5.6616150733       -0.0000001235



     Writing output data file ./outvac/vacancy.save/
     NEW-OLD atomic charge density approx. for the potential

     Check: negative core charge=   -0.000025

     negative rho (up, down):  1.702E-03 0.000E+00

     total cpu time spent up to now is       57.5 secs

     Self-consistent Calculation

     iteration #  1     ecut=    35.00 Ry     beta= 0.70
     Davidson diagonalization with overlap
     ethr =  1.00E-06,  avg # of iterations =  9.0

     negative rho (up, down):  1.552E-03 0.000E+00

     total cpu time spent up to now is       64.2 secs

     total energy              =    -210.51920495 Ry
     estimated scf accuracy    <       0.04160884 Ry

     iteration #  2     ecut=    35.00 Ry     beta= 0.70
     Davidson diagonalization with overlap
     ethr =  6.12E-05,  avg # of iterations =  4.0

     negative rho (up, down):  1.944E-03 0.000E+00

     total cpu time spent up to now is       67.6 secs

     total energy              =    -210.52194515 Ry
     estimated scf accuracy    <       0.07490968 Ry

     iteration #  3     ecut=    35.00 Ry     beta= 0.70
     Davidson diagonalization with overlap
     ethr =  6.12E-05,  avg # of iterations =  3.0

     negative rho (up, down):  1.806E-03 0.000E+00

     total cpu time spent up to now is       71.0 secs

     total energy              =    -210.53481460 Ry
     estimated scf accuracy    <       0.00965471 Ry

     iteration #  4     ecut=    35.00 Ry     beta= 0.70
     Davidson diagonalization with overlap
     ethr =  1.42E-05,  avg # of iterations =  2.0

     negative rho (up, down):  1.738E-03 0.000E+00

     total cpu time spent up to now is       73.6 secs

     total energy              =    -210.53582006 Ry
     estimated scf accuracy    <       0.00715576 Ry

     iteration #  5     ecut=    35.00 Ry     beta= 0.70
     Davidson diagonalization with overlap
     ethr =  1.05E-05,  avg # of iterations =  2.0

     negative rho (up, down):  1.645E-03 0.000E+00

     total cpu time spent up to now is       76.5 secs

     total energy              =    -210.53678170 Ry
     estimated scf accuracy    <       0.00091519 Ry

     iteration #  6     ecut=    35.00 Ry     beta= 0.70
     Davidson diagonalization with overlap
     ethr =  1.35E-06,  avg # of iterations =  2.0

     negative rho (up, down):  1.644E-03 0.000E+00

     total cpu time spent up to now is       79.3 secs

     total energy              =    -210.53688380 Ry
     estimated scf accuracy    <       0.00022599 Ry

     iteration #  7     ecut=    35.00 Ry     beta= 0.70
     Davidson diagonalization with overlap
     ethr =  3.32E-07,  avg # of iterations =  2.0

     negative rho (up, down):  1.640E-03 0.000E+00

     total cpu time spent up to now is       82.2 secs

     total energy              =    -210.53691442 Ry
     estimated scf accuracy    <       0.00007203 Ry

     iteration #  8     ecut=    35.00 Ry     beta= 0.70
     Davidson diagonalization with overlap
     ethr =  1.06E-07,  avg # of iterations =  2.0

     negative rho (up, down):  1.640E-03 0.000E+00

     total cpu time spent up to now is       84.9 secs

     total energy              =    -210.53692266 Ry
     estimated scf accuracy    <       0.00000198 Ry

     iteration #  9     ecut=    35.00 Ry     beta= 0.70
     Davidson diagonalization with overlap
     ethr =  2.91E-09,  avg # of iterations =  4.0

     negative rho (up, down):  1.640E-03 0.000E+00

     total cpu time spent up to now is       88.3 secs

     total energy              =    -210.53692304 Ry
     estimated scf accuracy    <       0.00000136 Ry

     iteration # 10     ecut=    35.00 Ry     beta= 0.70
     Davidson diagonalization with overlap
     ethr =  2.00E-09,  avg # of iterations =  2.0

     negative rho (up, down):  1.640E-03 0.000E+00

     total cpu time spent up to now is       91.1 secs

     total energy              =    -210.53692318 Ry
     estimated scf accuracy    <       0.00000090 Ry

     iteration # 11     ecut=    35.00 Ry     beta= 0.70
     Davidson diagonalization with overlap
     ethr =  1.32E-09,  avg # of iterations =  2.0

     negative rho (up, down):  1.640E-03 0.000E+00

     total cpu time spent up to now is       94.0 secs

     total energy              =    -210.53692325 Ry
     estimated scf accuracy    <       0.00000009 Ry

     iteration # 12     ecut=    35.00 Ry     beta= 0.70
     Davidson diagonalization with overlap
     ethr =  1.33E-10,  avg # of iterations =  2.0

     negative rho (up, down):  1.640E-03 0.000E+00

     total cpu time spent up to now is       97.3 secs

     total energy              =    -210.53692327 Ry
     estimated scf accuracy    <       0.00000003 Ry

     iteration # 13     ecut=    35.00 Ry     beta= 0.70
     Davidson diagonalization with overlap
     ethr =  4.49E-11,  avg # of iterations =  2.0

     negative rho (up, down):  1.640E-03 0.000E+00

     total cpu time spent up to now is      100.2 secs

     End of self-consistent calculation

          k = 0.0000 0.0000 0.0000 (  8214 PWs)   bands (ev):

   -21.4397 -19.3388 -19.0621 -19.0617 -18.8937 -18.8934 -17.4414 -14.7529
   -14.5072 -14.5072 -12.9945 -12.7083 -12.7083 -12.2206 -12.0905 -12.0902
   -10.2695 -10.2693  -9.4621  -8.6169  -8.1939  -8.1938  -7.2133  -6.9095
    -6.7923  -6.7917  -6.5744  -6.4830  -6.4813  -6.4202  -6.4198  -5.1071
    -1.9744  -1.9470  -1.9469  -1.3475  -1.3467   0.0888   1.0592   1.7787
     2.0710

     the Fermi energy is    -1.9143 ev

!    total energy              =    -210.53692327 Ry
     estimated scf accuracy    <          6.9E-09 Ry
     smearing contrib. (-TS)   =      -0.01529133 Ry
     internal energy E=F+TS    =    -210.52163195 Ry

     The total energy is F=E-TS. E is the sum of the following terms:
     one-electron contribution =   -1248.33484730 Ry
     hartree contribution      =     635.79626042 Ry
     xc contribution           =     -78.27173278 Ry
     ewald contribution        =     480.28868771 Ry

     convergence has been achieved in  13 iterations

     negative rho (up, down):  1.640E-03 0.000E+00

     Forces acting on atoms (cartesian axes, Ry/au):

     atom    1 type  1   force =    -0.07378079    0.04233819   -0.00000006
     atom    2 type  1   force =     0.00233213    0.00169250   -0.00000006
     atom    3 type  1   force =    -0.00024818   -0.08418854   -0.00000006
     atom    4 type  1   force =     0.07298666    0.04189355    0.00000006
     atom    5 type  1   force =     0.00057958   -0.01183933   -0.00000000
     atom    6 type  1   force =    -0.01018767    0.00631773   -0.00000002
     atom    7 type  1   force =    -0.00027877   -0.00293653    0.00000001
     atom    8 type  1   force =    -0.00207493    0.00150596    0.00000002
     atom    9 type  1   force =     0.01067593    0.00602127   -0.00000004
     atom   10 type  1   force =     0.00675989   -0.05472416    0.00000003
     atom   11 type  1   force =    -0.04426446    0.03309520    0.00000008
     atom   12 type  1   force =     0.00011851    0.00011678    0.00000003
     atom   13 type  1   force =    -0.00693457   -0.05478264   -0.00000006
     atom   14 type  1   force =    -0.04999205    0.02109363   -0.00000001
     atom   15 type  1   force =     0.00016241    0.00003069   -0.00000000
     atom   16 type  1   force =     0.04310130    0.03329878    0.00000003
     atom   17 type  1   force =     0.05104502    0.02106694    0.00000004

     Total force =     0.199921     Total SCF correction =     0.000134
     Energy error            =      2.7E-02
     Gradient error          =      8.4E-02

     number of scf cycles    =   2
     number of bfgs steps    =   1

     energy   old            =    -210.5097151442 Ry
     energy   new            =    -210.5369232718 Ry

     CASE: energy  _new < energy  _old

     new trust radius        =       0.0525692041 bohr
     new conv_thr            =       0.0000000084 Ry


ATOMIC_POSITIONS (angstrom)
C             0.0093466536       -0.0053254068       -0.0000000278
C            -1.2415106779        2.1272163965        0.0000000532
C            -2.4632323977        4.2770031327        0.0000000639
C             2.4535034673       -0.0054965173       -0.0000000387
C             1.2317928443        2.0807906346       -0.0000000034
C            -0.0450315943        4.2920224781       -0.0000000010
C             4.9258835136        0.0117513366        0.0000000084
C             3.7048154641        2.1271527706       -0.0000000312
C             2.5077837655        4.2919496707        0.0000001277
C             0.0005052590        1.4621614711       -0.0000000045
C            -1.1965845756        3.5351756584       -0.0000001588
C            -2.4630712985        5.6879517448       -0.0000000605
C             2.4627114972        1.4621311201        0.0000000502
C             0.0347088809        5.6673675778        0.0000000645
C             4.9260984021        1.4220103030        0.0000000251
C             3.6590923815        3.5352669033        0.0000000516
C             2.4282507592        5.6673348602       -0.0000001184



     Writing output data file ./outvac/vacancy.save/
     NEW-OLD atomic charge density approx. for the potential

     Check: negative core charge=   -0.000025

     negative rho (up, down):  1.656E-03 0.000E+00

     total cpu time spent up to now is      103.0 secs

     Self-consistent Calculation

     iteration #  1     ecut=    35.00 Ry     beta= 0.70
     Davidson diagonalization with overlap
     ethr =  1.00E-06,  avg # of iterations =  8.0

     negative rho (up, down):  1.627E-03 0.000E+00

     total cpu time spent up to now is      108.4 secs

     total energy              =    -210.54280217 Ry
     estimated scf accuracy    <       0.01286381 Ry

     iteration #  2     ecut=    35.00 Ry     beta= 0.70
     Davidson diagonalization with overlap
     ethr =  1.89E-05,  avg # of iterations =  3.0

     negative rho (up, down):  2.111E-03 0.000E+00

     total cpu time spent up to now is      111.9 secs

     total energy              =    -210.53724209 Ry
     estimated scf accuracy    <       0.10909350 Ry

     iteration #  3     ecut=    35.00 Ry     beta= 0.70
     Davidson diagonalization with overlap
     ethr =  1.89E-05,  avg # of iterations =  2.0

     negative rho (up, down):  1.696E-03 0.000E+00

     total cpu time spent up to now is      115.2 secs

     total energy              =    -210.54846743 Ry
     estimated scf accuracy    <       0.00509328 Ry

     iteration #  4     ecut=    35.00 Ry     beta= 0.70
     Davidson diagonalization with overlap
     ethr =  7.49E-06,  avg # of iterations =  2.0

     negative rho (up, down):  1.656E-03 0.000E+00

     total cpu time spent up to now is      118.0 secs

     total energy              =    -210.54920968 Ry
     estimated scf accuracy    <       0.00029190 Ry

     iteration #  5     ecut=    35.00 Ry     beta= 0.70
     Davidson diagonalization with overlap
     ethr =  4.29E-07,  avg # of iterations =  2.0

     negative rho (up, down):  1.639E-03 0.000E+00

     total cpu time spent up to now is      121.2 secs

     total energy              =    -210.54929006 Ry
     estimated scf accuracy    <       0.00006193 Ry

     iteration #  6     ecut=    35.00 Ry     beta= 0.70
     Davidson diagonalization with overlap
     ethr =  9.11E-08,  avg # of iterations =  4.0

     negative rho (up, down):  1.639E-03 0.000E+00

     total cpu time spent up to now is      124.5 secs

     total energy              =    -210.54929392 Ry
     estimated scf accuracy    <       0.00006192 Ry

     iteration #  7     ecut=    35.00 Ry     beta= 0.70
     Davidson diagonalization with overlap
     ethr =  9.11E-08,  avg # of iterations =  1.0

     negative rho (up, down):  1.638E-03 0.000E+00

     total cpu time spent up to now is      127.2 secs

     total energy              =    -210.54929998 Ry
     estimated scf accuracy    <       0.00000461 Ry

     iteration #  8     ecut=    35.00 Ry     beta= 0.70
     Davidson diagonalization with overlap
     ethr =  6.77E-09,  avg # of iterations =  4.0

     negative rho (up, down):  1.638E-03 0.000E+00

     total cpu time spent up to now is      130.3 secs

     total energy              =    -210.54930067 Ry
     estimated scf accuracy    <       0.00000091 Ry

     iteration #  9     ecut=    35.00 Ry     beta= 0.70
     Davidson diagonalization with overlap
     ethr =  1.35E-09,  avg # of iterations =  4.0

     negative rho (up, down):  1.638E-03 0.000E+00

     total cpu time spent up to now is      133.4 secs

     total energy              =    -210.54930081 Ry
     estimated scf accuracy    <       0.00000015 Ry

     iteration # 10     ecut=    35.00 Ry     beta= 0.70
     Davidson diagonalization with overlap
     ethr =  2.18E-10,  avg # of iterations =  3.0

     negative rho (up, down):  1.638E-03 0.000E+00

     total cpu time spent up to now is      136.5 secs

     total energy              =    -210.54930082 Ry
     estimated scf accuracy    <       0.00000007 Ry

     iteration # 11     ecut=    35.00 Ry     beta= 0.70
     Davidson diagonalization with overlap
     ethr =  9.68E-11,  avg # of iterations =  2.0

     negative rho (up, down):  1.638E-03 0.000E+00

     total cpu time spent up to now is      139.3 secs

     total energy              =    -210.54930083 Ry
     estimated scf accuracy    <       0.00000004 Ry

     iteration # 12     ecut=    35.00 Ry     beta= 0.70
     Davidson diagonalization with overlap
     ethr =  5.58E-11,  avg # of iterations =  2.0

     negative rho (up, down):  1.638E-03 0.000E+00

     total cpu time spent up to now is      142.1 secs

     total energy              =    -210.54930083 Ry
     estimated scf accuracy    <       0.00000002 Ry

     iteration # 13     ecut=    35.00 Ry     beta= 0.70
     Davidson diagonalization with overlap
     ethr =  2.64E-11,  avg # of iterations =  2.0

     negative rho (up, down):  1.638E-03 0.000E+00

     total cpu time spent up to now is      144.8 secs

     End of self-consistent calculation

          k = 0.0000 0.0000 0.0000 (  8214 PWs)   bands (ev):

   -21.4427 -19.2034 -19.0570 -19.0565 -18.9754 -18.9752 -17.3090 -14.8384
   -14.5348 -14.5343 -13.0720 -12.6639 -12.6637 -12.0945 -11.9708 -11.9707
   -10.4374 -10.4369  -9.4584  -8.5463  -8.1488  -8.1484  -7.4854  -6.7840
    -6.7610  -6.7608  -6.6267  -6.5193  -6.5189  -6.3579  -6.3566  -5.0220
    -1.9923  -1.9542  -1.9542  -1.5037  -1.5023   0.0301   1.0585   1.7808
     2.0699

     the Fermi energy is    -1.9247 ev

!    total energy              =    -210.54930083 Ry
     estimated scf accuracy    <          1.2E-09 Ry
     smearing contrib. (-TS)   =      -0.01517299 Ry
     internal energy E=F+TS    =    -210.53412784 Ry

     The total energy is F=E-TS. E is the sum of the following terms:
     one-electron contribution =   -1248.70758451 Ry
     hartree contribution      =     635.99507482 Ry
     xc contribution           =     -78.27302402 Ry
     ewald contribution        =     480.45140586 Ry

     convergence has been achieved in  13 iterations

     negative rho (up, down):  1.638E-03 0.000E+00

     Forces acting on atoms (cartesian axes, Ry/au):

     atom    1 type  1   force =     0.00678467   -0.00339021   -0.00000005
     atom    2 type  1   force =     0.00946828    0.00571278   -0.00000004
     atom    3 type  1   force =    -0.00010939    0.00736545   -0.00000005
     atom    4 type  1   force =    -0.00655978   -0.00350481    0.00000003
     atom    5 type  1   force =     0.00016067   -0.01626957    0.00000001
     atom    6 type  1   force =    -0.01414256    0.00847274   -0.00000001
     atom    7 type  1   force =     0.00039431   -0.01104524    0.00000000
     atom    8 type  1   force =    -0.00938465    0.00580423    0.00000003
     atom    9 type  1   force =     0.01411326    0.00841572   -0.00000003
     atom   10 type  1   force =    -0.01500466   -0.01150604    0.00000004
     atom   11 type  1   force =    -0.01758203   -0.00753009    0.00000006
     atom   12 type  1   force =    -0.00031358    0.00005156    0.00000004
     atom   13 type  1   force =     0.01520753   -0.01165943   -0.00000006
     atom   14 type  1   force =    -0.00223134    0.01830696   -0.00000001
     atom   15 type  1   force =     0.00002063   -0.00004351   -0.00000001
     atom   16 type  1   force =     0.01733560   -0.00787392    0.00000003
     atom   17 type  1   force =     0.00184304    0.01869337    0.00000002

     Total force =     0.059042     Total SCF correction =     0.000051
     Energy error            =      1.2E-02
     Gradient error          =      1.9E-02

     number of scf cycles    =   3
     number of bfgs steps    =   2

     energy   old            =    -210.5369232718 Ry
     energy   new            =    -210.5493008311 Ry

     CASE: energy  _new < energy  _old

     new trust radius        =       0.0220044078 bohr
     new conv_thr            =       0.0000000019 Ry


ATOMIC_POSITIONS (angstrom)
C             0.0099350834       -0.0053828352       -0.0000000586
C            -1.2362980501        2.1303789469        0.0000000264
C            -2.4633087984        4.2774713878        0.0000000359
C             2.4530026998       -0.0056403504       -0.0000000184
C             1.2319132345        2.0704039933        0.0000000020
C            -0.0540505132        4.2974212678       -0.0000000090
C             4.9260899122        0.0056614682        0.0000000106
C             3.6996664482        2.1303567534       -0.0000000148
C             2.5168053778        4.2973022654        0.0000001137
C            -0.0075224990        1.4539203358        0.0000000167
C            -1.2078133106        3.5321759810       -0.0000001266
C            -2.4632421640        5.6879859159       -0.0000000386
C             2.4708482977        1.4538016185        0.0000000166
C             0.0317518347        5.6781762071        0.0000000602
C             4.9261203194        1.4219879064        0.0000000216
C             3.6701248420        3.5320867041        0.0000000680
C             2.4310396299        5.6783565681       -0.0000001056



     Writing output data file ./outvac/vacancy.save/
     NEW-OLD atomic charge density approx. for the potential

     Check: negative core charge=   -0.000025

     negative rho (up, down):  1.642E-03 0.000E+00

     total cpu time spent up to now is      147.7 secs

     Self-consistent Calculation

     iteration #  1     ecut=    35.00 Ry     beta= 0.70
     Davidson diagonalization with overlap
     ethr =  1.00E-06,  avg # of iterations =  5.0

     negative rho (up, down):  1.634E-03 0.000E+00

     total cpu time spent up to now is      152.4 secs

     total energy              =    -210.54977419 Ry
     estimated scf accuracy    <       0.00242772 Ry

     iteration #  2     ecut=    35.00 Ry     beta= 0.70
     Davidson diagonalization with overlap
     ethr =  3.57E-06,  avg # of iterations =  3.0

     negative rho (up, down):  1.748E-03 0.000E+00

     total cpu time spent up to now is      155.8 secs

     total energy              =    -210.54852773 Ry
     estimated scf accuracy    <       0.02274092 Ry

     iteration #  3     ecut=    35.00 Ry     beta= 0.70
     Davidson diagonalization with overlap
     ethr =  3.57E-06,  avg # of iterations =  2.0

     negative rho (up, down):  1.652E-03 0.000E+00

     total cpu time spent up to now is      159.2 secs

     total energy              =    -210.55082534 Ry
     estimated scf accuracy    <       0.00082965 Ry

     iteration #  4     ecut=    35.00 Ry     beta= 0.70
     Davidson diagonalization with overlap
     ethr =  1.22E-06,  avg # of iterations =  4.0

     negative rho (up, down):  1.639E-03 0.000E+00

     total cpu time spent up to now is      162.1 secs

     total energy              =    -210.55096510 Ry
     estimated scf accuracy    <       0.00009110 Ry

     iteration #  5     ecut=    35.00 Ry     beta= 0.70
     Davidson diagonalization with overlap
     ethr =  1.34E-07,  avg # of iterations =  3.0

     negative rho (up, down):  1.637E-03 0.000E+00

     total cpu time spent up to now is      165.1 secs

     total energy              =    -210.55097748 Ry
     estimated scf accuracy    <       0.00004501 Ry

     iteration #  6     ecut=    35.00 Ry     beta= 0.70
     Davidson diagonalization with overlap
     ethr =  6.62E-08,  avg # of iterations =  2.0

     negative rho (up, down):  1.637E-03 0.000E+00

     total cpu time spent up to now is      167.7 secs

     total energy              =    -210.55098064 Ry
     estimated scf accuracy    <       0.00007403 Ry

     iteration #  7     ecut=    35.00 Ry     beta= 0.70
     Davidson diagonalization with overlap
     ethr =  6.62E-08,  avg # of iterations =  1.0

     negative rho (up, down):  1.637E-03 0.000E+00

     total cpu time spent up to now is      170.3 secs

     total energy              =    -210.55098695 Ry
     estimated scf accuracy    <       0.00000025 Ry

     iteration #  8     ecut=    35.00 Ry     beta= 0.70
     Davidson diagonalization with overlap
     ethr =  3.61E-10,  avg # of iterations =  5.0

     negative rho (up, down):  1.637E-03 0.000E+00

     total cpu time spent up to now is      174.0 secs

     total energy              =    -210.55098718 Ry
     estimated scf accuracy    <       0.00000042 Ry

     iteration #  9     ecut=    35.00 Ry     beta= 0.70
     Davidson diagonalization with overlap
     ethr =  3.61E-10,  avg # of iterations =  2.0

     negative rho (up, down):  1.637E-03 0.000E+00

     total cpu time spent up to now is      176.8 secs

     total energy              =    -210.55098721 Ry
     estimated scf accuracy    <       0.00000007 Ry

     iteration # 10     ecut=    35.00 Ry     beta= 0.70
     Davidson diagonalization with overlap
     ethr =  1.10E-10,  avg # of iterations =  2.0

     negative rho (up, down):  1.637E-03 0.000E+00

     total cpu time spent up to now is      179.6 secs

     total energy              =    -210.55098722 Ry
     estimated scf accuracy    <       0.00000005 Ry

     iteration # 11     ecut=    35.00 Ry     beta= 0.70
     Davidson diagonalization with overlap
     ethr =  8.01E-11,  avg # of iterations =  1.0

     negative rho (up, down):  1.637E-03 0.000E+00

     total cpu time spent up to now is      182.3 secs

     total energy              =    -210.55098722 Ry
     estimated scf accuracy    <          5.5E-09 Ry

     iteration # 12     ecut=    35.00 Ry     beta= 0.70
     Davidson diagonalization with overlap
     ethr =  8.13E-12,  avg # of iterations =  4.0

     negative rho (up, down):  1.637E-03 0.000E+00

     total cpu time spent up to now is      185.6 secs

     End of self-consistent calculation

          k = 0.0000 0.0000 0.0000 (  8214 PWs)   bands (ev):

   -21.4649 -19.2044 -19.0726 -19.0720 -19.0072 -19.0064 -17.2359 -14.8791
   -14.5479 -14.5469 -13.0635 -12.6662 -12.6653 -12.1251 -11.9852 -11.9844
   -10.4485 -10.4476  -9.4741  -8.5411  -8.1283  -8.1273  -7.5756  -6.7788
    -6.7463  -6.7460  -6.5703  -6.5700  -6.5379  -6.3882  -6.3833  -4.9570
    -2.0022  -1.9582  -1.9580  -1.5047  -1.5014   0.0045   1.0574   1.7807
     2.0684

     the Fermi energy is    -1.9303 ev

!    total energy              =    -210.55098722 Ry
     estimated scf accuracy    <          7.2E-10 Ry
     smearing contrib. (-TS)   =      -0.01509001 Ry
     internal energy E=F+TS    =    -210.53589721 Ry

     The total energy is F=E-TS. E is the sum of the following terms:
     one-electron contribution =   -1249.34737051 Ry
     hartree contribution      =     636.31154188 Ry
     xc contribution           =     -78.29377114 Ry
     ewald contribution        =     480.79370256 Ry

     convergence has been achieved in  12 iterations

     negative rho (up, down):  1.637E-03 0.000E+00

     Forces acting on atoms (cartesian axes, Ry/au):

     atom    1 type  1   force =     0.00662954   -0.00184434   -0.00000003
     atom    2 type  1   force =    -0.01469789   -0.00760302   -0.00000002
     atom    3 type  1   force =     0.00053704    0.00679685   -0.00000002
     atom    4 type  1   force =    -0.00654602   -0.00264380    0.00000003
     atom    5 type  1   force =     0.00068534   -0.01854845    0.00000001
     atom    6 type  1   force =    -0.01547281    0.01068539   -0.00000001
     atom    7 type  1   force =     0.00029248    0.01653370    0.00000000
     atom    8 type  1   force =     0.01502931   -0.00723688    0.00000002
     atom    9 type  1   force =     0.01564896    0.01012109   -0.00000002
     atom   10 type  1   force =     0.00951154    0.00027263    0.00000002
     atom   11 type  1   force =     0.00489316    0.00655341    0.00000003
     atom   12 type  1   force =     0.00006723    0.00000685    0.00000002
     atom   13 type  1   force =    -0.01032257    0.00060147   -0.00000004
     atom   14 type  1   force =    -0.00330500   -0.01003754   -0.00000000
     atom   15 type  1   force =     0.00007694    0.00006994   -0.00000001
     atom   16 type  1   force =    -0.00562682    0.00607739    0.00000002
     atom   17 type  1   force =     0.00259956   -0.00980471    0.00000001

     Total force =     0.050618     Total SCF correction =     0.000054
     Energy error            =      1.7E-03
     Gradient error          =      1.9E-02

     number of scf cycles    =   4
     number of bfgs steps    =   3

     energy   old            =    -210.5493008311 Ry
     energy   new            =    -210.5509872212 Ry

     CASE: energy  _new < energy  _old

     new trust radius        =       0.0296986604 bohr
     new conv_thr            =       0.0000000017 Ry


ATOMIC_POSITIONS (angstrom)
C             0.0125954536       -0.0058244847       -0.0000000892
C            -1.2405804581        2.1284146941        0.0000000026
C            -2.4631034262        4.2800379038        0.0000000099
C             2.4504176988       -0.0065178691        0.0000000048
C             1.2323177309        2.0548682499        0.0000000086
C            -0.0672335352        4.3059767344       -0.0000000176
C             4.9263376206        0.0103591672        0.0000000128
C             3.7041505843        2.1285855534        0.0000000013
C             2.5300766328        4.3055592005        0.0000000984
C            -0.0072850081        1.4495233059        0.0000000370
C            -1.2115979082        3.5337492023       -0.0000000964
C            -2.4633039975        5.6880096251       -0.0000000196
C             2.4702871971        1.4495113544       -0.0000000198
C             0.0285061754        5.6792279505        0.0000000587
C             4.9261744474        1.4220097770        0.0000000160
C             3.6734307873        3.5333394590        0.0000000868
C             2.4338723493        5.6796343105       -0.0000000946



     Writing output data file ./outvac/vacancy.save/
     NEW-OLD atomic charge density approx. for the potential

     Check: negative core charge=   -0.000025

     negative rho (up, down):  1.637E-03 0.000E+00

     total cpu time spent up to now is      188.5 secs

     Self-consistent Calculation

     iteration #  1     ecut=    35.00 Ry     beta= 0.70
     Davidson diagonalization with overlap
     ethr =  1.00E-06,  avg # of iterations =  6.0

     negative rho (up, down):  1.642E-03 0.000E+00

     total cpu time spent up to now is      192.7 secs

     total energy              =    -210.55221738 Ry
     estimated scf accuracy    <       0.00079885 Ry

     iteration #  2     ecut=    35.00 Ry     beta= 0.70
     Davidson diagonalization with overlap
     ethr =  1.17E-06,  avg # of iterations =  3.0

     negative rho (up, down):  1.651E-03 0.000E+00

     total cpu time spent up to now is      196.0 secs

     total energy              =    -210.55216938 Ry
     estimated scf accuracy    <       0.00132401 Ry

     iteration #  3     ecut=    35.00 Ry     beta= 0.70
     Davidson diagonalization with overlap
     ethr =  1.17E-06,  avg # of iterations =  2.0

     negative rho (up, down):  1.650E-03 0.000E+00

     total cpu time spent up to now is      198.8 secs

     total energy              =    -210.55234489 Ry
     estimated scf accuracy    <       0.00087890 Ry

     iteration #  4     ecut=    35.00 Ry     beta= 0.70
     Davidson diagonalization with overlap
     ethr =  1.17E-06,  avg # of iterations =  2.0

     negative rho (up, down):  1.646E-03 0.000E+00

     total cpu time spent up to now is      201.4 secs

     total energy              =    -210.55243510 Ry
     estimated scf accuracy    <       0.00006607 Ry

     iteration #  5     ecut=    35.00 Ry     beta= 0.70
     Davidson diagonalization with overlap
     ethr =  9.72E-08,  avg # of iterations =  2.0

     negative rho (up, down):  1.646E-03 0.000E+00

     total cpu time spent up to now is      204.3 secs

     total energy              =    -210.55243920 Ry
     estimated scf accuracy    <       0.00012889 Ry

     iteration #  6     ecut=    35.00 Ry     beta= 0.70
     Davidson diagonalization with overlap
     ethr =  9.72E-08,  avg # of iterations =  2.0

     negative rho (up, down):  1.645E-03 0.000E+00

     total cpu time spent up to now is      207.1 secs

     total energy              =    -210.55245186 Ry
     estimated scf accuracy    <       0.00001435 Ry

     iteration #  7     ecut=    35.00 Ry     beta= 0.70
     Davidson diagonalization with overlap
     ethr =  2.11E-08,  avg # of iterations =  2.0

     negative rho (up, down):  1.645E-03 0.000E+00

     total cpu time spent up to now is      210.0 secs

     total energy              =    -210.55245394 Ry
     estimated scf accuracy    <       0.00000041 Ry

     iteration #  8     ecut=    35.00 Ry     beta= 0.70
     Davidson diagonalization with overlap
     ethr =  6.02E-10,  avg # of iterations =  4.0

     negative rho (up, down):  1.645E-03 0.000E+00

     total cpu time spent up to now is      213.4 secs

     total energy              =    -210.55245409 Ry
     estimated scf accuracy    <       0.00000017 Ry

     iteration #  9     ecut=    35.00 Ry     beta= 0.70
     Davidson diagonalization with overlap
     ethr =  2.50E-10,  avg # of iterations =  3.0

     negative rho (up, down):  1.645E-03 0.000E+00

     total cpu time spent up to now is      216.4 secs

     total energy              =    -210.55245410 Ry
     estimated scf accuracy    <       0.00000038 Ry

     iteration # 10     ecut=    35.00 Ry     beta= 0.70
     Davidson diagonalization with overlap
     ethr =  2.50E-10,  avg # of iterations =  2.0

     negative rho (up, down):  1.645E-03 0.000E+00

     total cpu time spent up to now is      219.0 secs

     total energy              =    -210.55245414 Ry
     estimated scf accuracy    <       0.00000003 Ry

     iteration # 11     ecut=    35.00 Ry     beta= 0.70
     Davidson diagonalization with overlap
     ethr =  4.54E-11,  avg # of iterations =  3.0

     negative rho (up, down):  1.645E-03 0.000E+00

     total cpu time spent up to now is      221.9 secs

     total energy              =    -210.55245414 Ry
     estimated scf accuracy    <          8.2E-09 Ry

     iteration # 12     ecut=    35.00 Ry     beta= 0.70
     Davidson diagonalization with overlap
     ethr =  1.21E-11,  avg # of iterations =  2.0

     negative rho (up, down):  1.645E-03 0.000E+00

     total cpu time spent up to now is      224.9 secs

     End of self-consistent calculation

          k = 0.0000 0.0000 0.0000 (  8214 PWs)   bands (ev):

   -21.4879 -19.2489 -19.1201 -19.1170 -18.9891 -18.9875 -17.2279 -14.9069
   -14.5621 -14.5601 -13.0765 -12.6906 -12.6874 -12.1279 -12.0186 -12.0178
   -10.4218 -10.4198  -9.4891  -8.5650  -8.1781  -8.1761  -7.5733  -6.8104
    -6.7557  -6.7554  -6.5786  -6.5770  -6.4110  -6.3966  -6.3928  -4.9530
    -2.0086  -1.9595  -1.9567  -1.4862  -1.4747   0.0512   1.0555   1.7773
     2.0663

     the Fermi energy is    -1.9321 ev

!    total energy              =    -210.55245414 Ry
     estimated scf accuracy    <          1.2E-09 Ry
     smearing contrib. (-TS)   =      -0.01498996 Ry
     internal energy E=F+TS    =    -210.53746418 Ry

     The total energy is F=E-TS. E is the sum of the following terms:
     one-electron contribution =   -1250.17546886 Ry
     hartree contribution      =     636.72491830 Ry
     xc contribution           =     -78.33156832 Ry
     ewald contribution        =     481.24465469 Ry

     convergence has been achieved in  12 iterations

     negative rho (up, down):  1.645E-03 0.000E+00

     Forces acting on atoms (cartesian axes, Ry/au):

     atom    1 type  1   force =     0.00607238    0.00417620   -0.00000000
     atom    2 type  1   force =    -0.00311496    0.00237345   -0.00000000
     atom    3 type  1   force =     0.00241017    0.00307968    0.00000000
     atom    4 type  1   force =    -0.00518885    0.00187972    0.00000002
     atom    5 type  1   force =     0.00201924   -0.00884254    0.00000001
     atom    6 type  1   force =    -0.00454666    0.00941129   -0.00000000
     atom    7 type  1   force =     0.00179970    0.00145725    0.00000000
     atom    8 type  1   force =     0.00413071    0.00380789   -0.00000000
     atom    9 type  1   force =     0.00532919    0.00735477   -0.00000001
     atom   10 type  1   force =     0.00231857   -0.00135185    0.00000000
     atom   11 type  1   force =     0.00017085   -0.00380504    0.00000000
     atom   12 type  1   force =     0.00022403    0.00027130   -0.00000001
     atom   13 type  1   force =    -0.00527881    0.00042435   -0.00000002
     atom   14 type  1   force =     0.00354270   -0.00803163    0.00000001
     atom   15 type  1   force =     0.00010553    0.00006234    0.00000000
     atom   16 type  1   force =    -0.00330657   -0.00558858    0.00000001
     atom   17 type  1   force =    -0.00668724   -0.00667860   -0.00000000

     Total force =     0.026168     Total SCF correction =     0.000052
     Energy error            =      1.5E-03
     Gradient error          =      9.4E-03

     number of scf cycles    =   5
     number of bfgs steps    =   4

     energy   old            =    -210.5509872212 Ry
     energy   new            =    -210.5524541398 Ry

     CASE: energy  _new < energy  _old

     new trust radius        =       0.0350022659 bohr
     new conv_thr            =       0.0000000009 Ry


ATOMIC_POSITIONS (angstrom)
C             0.0170152704       -0.0015181510       -0.0000001149
C            -1.2437172990        2.1303035727       -0.0000000190
C            -2.4610641778        4.2816654348       -0.0000000081
C             2.4467567278       -0.0043260901        0.0000000338
C             1.2342054284        2.0370426196        0.0000000181
C            -0.0799984208        4.3193982488       -0.0000000267
C             4.9279709687        0.0120922681        0.0000000154
C             3.7082387896        2.1317422961        0.0000000124
C             2.5435343734        4.3171393154        0.0000000807
C            -0.0071929408        1.4433824416        0.0000000535
C            -1.2167914460        3.5311554916       -0.0000000733
C            -2.4631902940        5.6882552746       -0.0000000129
C             2.4676490559        1.4448512755       -0.0000000599
C             0.0283320291        5.6762214879        0.0000000662
C             4.9262977789        1.4220658749        0.0000000138
C             3.6757493606        3.5290996727        0.0000001082
C             2.4312671399        5.6778931012       -0.0000000872



     Writing output data file ./outvac/vacancy.save/
     NEW-OLD atomic charge density approx. for the potential

     Check: negative core charge=   -0.000025

     negative rho (up, down):  1.647E-03 0.000E+00

     total cpu time spent up to now is      227.6 secs

     Self-consistent Calculation

     iteration #  1     ecut=    35.00 Ry     beta= 0.70
     Davidson diagonalization with overlap
     ethr =  1.00E-06,  avg # of iterations =  5.0

     negative rho (up, down):  1.653E-03 0.000E+00

     total cpu time spent up to now is      232.3 secs

     total energy              =    -210.55323868 Ry
     estimated scf accuracy    <       0.00397052 Ry

     iteration #  2     ecut=    35.00 Ry     beta= 0.70
     Davidson diagonalization with overlap
     ethr =  5.84E-06,  avg # of iterations =  2.0

     negative rho (up, down):  1.690E-03 0.000E+00

     total cpu time spent up to now is      235.5 secs

     total energy              =    -210.55177223 Ry
     estimated scf accuracy    <       0.01157556 Ry

     iteration #  3     ecut=    35.00 Ry     beta= 0.70
     Davidson diagonalization with overlap
     ethr =  5.84E-06,  avg # of iterations =  2.0

     negative rho (up, down):  1.677E-03 0.000E+00

     total cpu time spent up to now is      238.9 secs

     total energy              =    -210.55348595 Ry
     estimated scf accuracy    <       0.00951046 Ry

     iteration #  4     ecut=    35.00 Ry     beta= 0.70
     Davidson diagonalization with overlap
     ethr =  5.84E-06,  avg # of iterations =  1.0

     negative rho (up, down):  1.661E-03 0.000E+00

     total cpu time spent up to now is      241.7 secs

     total energy              =    -210.55428967 Ry
     estimated scf accuracy    <       0.00019866 Ry

     iteration #  5     ecut=    35.00 Ry     beta= 0.70
     Davidson diagonalization with overlap
     ethr =  2.92E-07,  avg # of iterations =  2.0

     negative rho (up, down):  1.659E-03 0.000E+00

     total cpu time spent up to now is      245.0 secs

     total energy              =    -210.55433460 Ry
     estimated scf accuracy    <       0.00009301 Ry

     iteration #  6     ecut=    35.00 Ry     beta= 0.70
     Davidson diagonalization with overlap
     ethr =  1.37E-07,  avg # of iterations =  2.0

     negative rho (up, down):  1.658E-03 0.000E+00

     total cpu time spent up to now is      248.4 secs

     total energy              =    -210.55434607 Ry
     estimated scf accuracy    <       0.00001283 Ry

     iteration #  7     ecut=    35.00 Ry     beta= 0.70
     Davidson diagonalization with overlap
     ethr =  1.89E-08,  avg # of iterations =  3.0

     negative rho (up, down):  1.658E-03 0.000E+00

     total cpu time spent up to now is      251.4 secs

     total energy              =    -210.55434827 Ry
     estimated scf accuracy    <       0.00000246 Ry

     iteration #  8     ecut=    35.00 Ry     beta= 0.70
     Davidson diagonalization with overlap
     ethr =  3.62E-09,  avg # of iterations =  2.0

     negative rho (up, down):  1.658E-03 0.000E+00

     total cpu time spent up to now is      254.6 secs

     total energy              =    -210.55434862 Ry
     estimated scf accuracy    <       0.00000090 Ry

     iteration #  9     ecut=    35.00 Ry     beta= 0.70
     Davidson diagonalization with overlap
     ethr =  1.32E-09,  avg # of iterations =  2.0

     negative rho (up, down):  1.658E-03 0.000E+00

     total cpu time spent up to now is      257.4 secs

     total energy              =    -210.55434869 Ry
     estimated scf accuracy    <       0.00000099 Ry

     iteration # 10     ecut=    35.00 Ry     beta= 0.70
     Davidson diagonalization with overlap
     ethr =  1.32E-09,  avg # of iterations =  1.0

     negative rho (up, down):  1.658E-03 0.000E+00

     total cpu time spent up to now is      260.1 secs

     total energy              =    -210.55434879 Ry
     estimated scf accuracy    <       0.00000004 Ry

     iteration # 11     ecut=    35.00 Ry     beta= 0.70
     Davidson diagonalization with overlap
     ethr =  5.93E-11,  avg # of iterations =  4.0

     negative rho (up, down):  1.658E-03 0.000E+00

     total cpu time spent up to now is      263.6 secs

     total energy              =    -210.55434880 Ry
     estimated scf accuracy    <       0.00000001 Ry

     iteration # 12     ecut=    35.00 Ry     beta= 0.70
     Davidson diagonalization with overlap
     ethr =  1.90E-11,  avg # of iterations =  4.0

     negative rho (up, down):  1.658E-03 0.000E+00

     total cpu time spent up to now is      266.7 secs

     total energy              =    -210.55434880 Ry
     estimated scf accuracy    <          1.5E-09 Ry

     iteration # 13     ecut=    35.00 Ry     beta= 0.70
     Davidson diagonalization with overlap
     ethr =  2.15E-12,  avg # of iterations =  5.0

     negative rho (up, down):  1.658E-03 0.000E+00

     total cpu time spent up to now is      270.2 secs

     total energy              =    -210.55434880 Ry
     estimated scf accuracy    <          1.5E-09 Ry

     iteration # 14     ecut=    35.00 Ry     beta= 0.70
     Davidson diagonalization with overlap
     ethr =  2.15E-12,  avg # of iterations =  2.0

     negative rho (up, down):  1.658E-03 0.000E+00

     total cpu time spent up to now is      273.4 secs

     End of self-consistent calculation

          k = 0.0000 0.0000 0.0000 (  8214 PWs)   bands (ev):

   -21.5093 -19.2787 -19.1734 -19.1489 -18.9955 -18.9843 -17.2136 -14.9551
   -14.5772 -14.5676 -13.0691 -12.7257 -12.7073 -12.1524 -12.0572 -12.0550
   -10.3950 -10.3831  -9.5042  -8.6239  -8.2205  -8.2127  -7.5568  -6.8322
    -6.7828  -6.7740  -6.5895  -6.5796  -6.4810  -6.3780  -6.2234  -4.9407
    -2.0680  -1.9534  -1.9096  -1.4627  -1.4011   0.1032   1.0539   1.7737
     2.0646

     the Fermi energy is    -1.9233 ev

!    total energy              =    -210.55434880 Ry
     estimated scf accuracy    <          2.2E-11 Ry
     smearing contrib. (-TS)   =      -0.01277715 Ry
     internal energy E=F+TS    =    -210.54157165 Ry

     The total energy is F=E-TS. E is the sum of the following terms:
     one-electron contribution =   -1251.07662315 Ry
     hartree contribution      =     637.17496523 Ry
     xc contribution           =     -78.37751236 Ry
     ewald contribution        =     481.73759864 Ry

     convergence has been achieved in  14 iterations

     negative rho (up, down):  1.658E-03 0.000E+00

     Forces acting on atoms (cartesian axes, Ry/au):

     atom    1 type  1   force =     0.01545482    0.02844268    0.00000002
     atom    2 type  1   force =    -0.00518746    0.01635776    0.00000002
     atom    3 type  1   force =     0.01125964   -0.00200869    0.00000001
     atom    4 type  1   force =    -0.01063814    0.01841476    0.00000000
     atom    5 type  1   force =     0.00953741    0.00250419    0.00000000
     atom    6 type  1   force =     0.01780477    0.02174831    0.00000000
     atom    7 type  1   force =     0.00879385   -0.00380067   -0.00000000
     atom    8 type  1   force =     0.00923943    0.02405965   -0.00000000
     atom    9 type  1   force =    -0.01378322    0.01286066   -0.00000001
     atom   10 type  1   force =     0.00081478   -0.02524113   -0.00000002
     atom   11 type  1   force =    -0.01940375   -0.01667970   -0.00000000
     atom   12 type  1   force =     0.00084345    0.00121289   -0.00000001
     atom   13 type  1   force =    -0.01459242   -0.01673374    0.00000000
     atom   14 type  1   force =     0.00674418   -0.02136942    0.00000001
     atom   15 type  1   force =     0.00064690    0.00034175   -0.00000001
     atom   16 type  1   force =     0.00368725   -0.02496658   -0.00000000
     atom   17 type  1   force =    -0.02122149   -0.01514271   -0.00000000

     Total force =     0.086781     Total SCF correction =     0.000010
     Energy error            =      1.9E-03
     Gradient error          =      2.8E-02

     number of scf cycles    =   6
     number of bfgs steps    =   5

     energy   old            =    -210.5524541398 Ry
     energy   new            =    -210.5543488004 Ry

     CASE: energy  _new < energy  _old


     WARNING: bfgs curvature condition failed, Theta= 0.513
     new trust radius        =       0.0385024925 bohr
     new conv_thr            =       0.0000000019 Ry


ATOMIC_POSITIONS (angstrom)
C             0.0197119650       -0.0000987575       -0.0000001443
C            -1.2456825981        2.1309344299       -0.0000000446
C            -2.4601662832        4.2834035743       -0.0000000260
C             2.4442936910       -0.0040362631        0.0000000662
C             1.2351135626        2.0170115808        0.0000000288
C            -0.0963121142        4.3316043714       -0.0000000369
C             4.9287037029        0.0134416842        0.0000000187
C             3.7107865642        2.1327959979        0.0000000231
C             2.5601151097        4.3283605400        0.0000000632
C            -0.0074122601        1.4404408811        0.0000000732
C            -1.2196454144        3.5297044661       -0.0000000504
C            -2.4631538463        5.6883880878       -0.0000000078
C             2.4667240766        1.4425213119       -0.0000001042
C             0.0280750935        5.6753739321        0.0000000751
C             4.9263443518        1.4220795727        0.0000000140
C             3.6773691950        3.5268402096        0.0000001320
C             2.4301975480        5.6776985151       -0.0000000802



     Writing output data file ./outvac/vacancy.save/
     NEW-OLD atomic charge density approx. for the potential

     Check: negative core charge=   -0.000025

     negative rho (up, down):  1.659E-03 0.000E+00

     total cpu time spent up to now is      276.5 secs

     Self-consistent Calculation

     iteration #  1     ecut=    35.00 Ry     beta= 0.70
     Davidson diagonalization with overlap
     ethr =  1.00E-06,  avg # of iterations =  5.0

     negative rho (up, down):  1.669E-03 0.000E+00

     total cpu time spent up to now is      280.8 secs

     total energy              =    -210.55378346 Ry
     estimated scf accuracy    <       0.00120040 Ry

     iteration #  2     ecut=    35.00 Ry     beta= 0.70
     Davidson diagonalization with overlap
     ethr =  1.77E-06,  avg # of iterations =  4.0

     negative rho (up, down):  1.700E-03 0.000E+00

     total cpu time spent up to now is      284.2 secs

     total energy              =    -210.55312806 Ry
     estimated scf accuracy    <       0.00706373 Ry

     iteration #  3     ecut=    35.00 Ry     beta= 0.70
     Davidson diagonalization with overlap
     ethr =  1.77E-06,  avg # of iterations =  2.0

     negative rho (up, down):  1.677E-03 0.000E+00

     total cpu time spent up to now is      287.7 secs

     total energy              =    -210.55404877 Ry
     estimated scf accuracy    <       0.00115746 Ry

     iteration #  4     ecut=    35.00 Ry     beta= 0.70
     Davidson diagonalization with overlap
     ethr =  1.70E-06,  avg # of iterations =  2.0

     negative rho (up, down):  1.674E-03 0.000E+00

     total cpu time spent up to now is      291.0 secs

     total energy              =    -210.55416617 Ry
     estimated scf accuracy    <       0.00015090 Ry

     iteration #  5     ecut=    35.00 Ry     beta= 0.70
     Davidson diagonalization with overlap
     ethr =  2.22E-07,  avg # of iterations =  2.0

     negative rho (up, down):  1.674E-03 0.000E+00

     total cpu time spent up to now is      294.2 secs

     total energy              =    -210.55419218 Ry
     estimated scf accuracy    <       0.00003184 Ry

     iteration #  6     ecut=    35.00 Ry     beta= 0.70
     Davidson diagonalization with overlap
     ethr =  4.68E-08,  avg # of iterations =  2.0

     negative rho (up, down):  1.673E-03 0.000E+00

     total cpu time spent up to now is      297.0 secs

     total energy              =    -210.55419681 Ry
     estimated scf accuracy    <       0.00000772 Ry

     iteration #  7     ecut=    35.00 Ry     beta= 0.70
     Davidson diagonalization with overlap
     ethr =  1.13E-08,  avg # of iterations =  2.0

     negative rho (up, down):  1.673E-03 0.000E+00

     total cpu time spent up to now is      299.9 secs

     total energy              =    -210.55419759 Ry
     estimated scf accuracy    <       0.00000752 Ry

     iteration #  8     ecut=    35.00 Ry     beta= 0.70
     Davidson diagonalization with overlap
     ethr =  1.11E-08,  avg # of iterations =  1.0

     negative rho (up, down):  1.673E-03 0.000E+00

     total cpu time spent up to now is      302.5 secs

     total energy              =    -210.55419845 Ry
     estimated scf accuracy    <       0.00000099 Ry

     iteration #  9     ecut=    35.00 Ry     beta= 0.70
     Davidson diagonalization with overlap
     ethr =  1.45E-09,  avg # of iterations =  2.0

     negative rho (up, down):  1.673E-03 0.000E+00

     total cpu time spent up to now is      305.3 secs

     total energy              =    -210.55419859 Ry
     estimated scf accuracy    <       0.00000005 Ry

     iteration # 10     ecut=    35.00 Ry     beta= 0.70
     Davidson diagonalization with overlap
     ethr =  7.82E-11,  avg # of iterations =  2.0

     negative rho (up, down):  1.673E-03 0.000E+00

     total cpu time spent up to now is      308.7 secs

     total energy              =    -210.55419860 Ry
     estimated scf accuracy    <       0.00000002 Ry

     iteration # 11     ecut=    35.00 Ry     beta= 0.70
     Davidson diagonalization with overlap
     ethr =  2.87E-11,  avg # of iterations =  3.0

     negative rho (up, down):  1.673E-03 0.000E+00

     total cpu time spent up to now is      311.8 secs

     total energy              =    -210.55419860 Ry
     estimated scf accuracy    <          8.8E-09 Ry

     iteration # 12     ecut=    35.00 Ry     beta= 0.70
     Davidson diagonalization with overlap
     ethr =  1.29E-11,  avg # of iterations =  2.0

     negative rho (up, down):  1.673E-03 0.000E+00

     total cpu time spent up to now is      314.8 secs

     End of self-consistent calculation

          k = 0.0000 0.0000 0.0000 (  8214 PWs)   bands (ev):

   -21.5335 -19.3115 -19.2246 -19.1914 -19.0063 -18.9856 -17.1990 -15.0142
   -14.5920 -14.5777 -13.0574 -12.7620 -12.7367 -12.1843 -12.1037 -12.0942
   -10.3605 -10.3455  -9.5218  -8.6967  -8.2647  -8.2521  -7.5333  -6.8574
    -6.8172  -6.7982  -6.5981  -6.5835  -6.5343  -6.3906  -6.0298  -4.9287
    -2.1064  -1.9466  -1.8867  -1.4089  -1.3276   0.1612   1.0520   1.7697
     2.0621

     the Fermi energy is    -1.9138 ev

!    total energy              =    -210.55419860 Ry
     estimated scf accuracy    <          7.8E-10 Ry
     smearing contrib. (-TS)   =      -0.01150493 Ry
     internal energy E=F+TS    =    -210.54269367 Ry

     The total energy is F=E-TS. E is the sum of the following terms:
     one-electron contribution =   -1252.08873473 Ry
     hartree contribution      =     637.67915129 Ry
     xc contribution           =     -78.42879564 Ry
     ewald contribution        =     482.29568540 Ry

     convergence has been achieved in  12 iterations

     negative rho (up, down):  1.673E-03 0.000E+00

     Forces acting on atoms (cartesian axes, Ry/au):

     atom    1 type  1   force =     0.01377798    0.03454610    0.00000004
     atom    2 type  1   force =    -0.00174486    0.01913805    0.00000004
     atom    3 type  1   force =     0.01274510   -0.00727916    0.00000003
     atom    4 type  1   force =    -0.00836729    0.02339527   -0.00000002
     atom    5 type  1   force =     0.00944970    0.01755534   -0.00000000
     atom    6 type  1   force =     0.03145601    0.01351707    0.00000001
     atom    7 type  1   force =     0.00931156   -0.00776519   -0.00000001
     atom    8 type  1   force =     0.00562830    0.02761361   -0.00000001
     atom    9 type  1   force =    -0.02753615    0.00501358   -0.00000001
     atom   10 type  1   force =    -0.00373971   -0.03354948   -0.00000004
     atom   11 type  1   force =    -0.02740657   -0.01723679   -0.00000003
     atom   12 type  1   force =     0.00123873    0.00124578   -0.00000002
     atom   13 type  1   force =    -0.01022313   -0.02473801    0.00000003
     atom   14 type  1   force =     0.00528073   -0.01502181    0.00000002
     atom   15 type  1   force =     0.00130448    0.00000790   -0.00000001
     atom   16 type  1   force =     0.00968680   -0.02620947   -0.00000001
     atom   17 type  1   force =    -0.02086166   -0.01023280   -0.00000001

     Total force =     0.101798     Total SCF correction =     0.000057
     Energy error            =      1.5E-04
     Gradient error          =      3.5E-02

     number of scf cycles    =   7
     number of bfgs steps    =   6

     energy   old            =    -210.5543488004 Ry
     energy   new            =    -210.5541986043 Ry

     CASE: energy  _new > energy  _old

     new trust radius        =       0.0156966465 bohr
     new conv_thr            =       0.0000000019 Ry


ATOMIC_POSITIONS (angstrom)
C             0.0181146554       -0.0009394945       -0.0000001269
C            -1.2445185096        2.1305607597       -0.0000000295
C            -2.4606981253        4.2823740373       -0.0000000154
C             2.4457526002       -0.0042079338        0.0000000470
C             1.2345756554        2.0288763915        0.0000000224
C            -0.0866491663        4.3243744251       -0.0000000309
C             4.9282696888        0.0126423963        0.0000000168
C             3.7092774631        2.1321718679        0.0000000168
C             2.5502939866        4.3217139698        0.0000000736
C            -0.0072823526        1.4421832301        0.0000000615
C            -1.2179549482        3.5305639394       -0.0000000640
C            -2.4631754351        5.6883094197       -0.0000000108
C             2.4672719616        1.4439013990       -0.0000000780
C             0.0282272819        5.6758759574        0.0000000698
C             4.9263167657        1.4220714592        0.0000000139
C             3.6764097326        3.5281785377        0.0000001179
C             2.4308310901        5.6778137726       -0.0000000843



     Writing output data file ./outvac/vacancy.save/
     NEW-OLD atomic charge density approx. for the potential

     Check: negative core charge=   -0.000025

     negative rho (up, down):  1.675E-03 0.000E+00

     total cpu time spent up to now is      318.0 secs

     Self-consistent Calculation

     iteration #  1     ecut=    35.00 Ry     beta= 0.70
     Davidson diagonalization with overlap
     ethr =  1.00E-06,  avg # of iterations =  4.0

     negative rho (up, down):  1.666E-03 0.000E+00

     total cpu time spent up to now is      322.1 secs

     total energy              =    -210.55433069 Ry
     estimated scf accuracy    <       0.00042899 Ry

     iteration #  2     ecut=    35.00 Ry     beta= 0.70
     Davidson diagonalization with overlap
     ethr =  6.31E-07,  avg # of iterations =  4.0

     negative rho (up, down):  1.676E-03 0.000E+00

     total cpu time spent up to now is      325.7 secs

     total energy              =    -210.55406301 Ry
     estimated scf accuracy    <       0.00309170 Ry

     iteration #  3     ecut=    35.00 Ry     beta= 0.70
     Davidson diagonalization with overlap
     ethr =  6.31E-07,  avg # of iterations =  3.0

     negative rho (up, down):  1.666E-03 0.000E+00

     total cpu time spent up to now is      328.9 secs

     total energy              =    -210.55443832 Ry
     estimated scf accuracy    <       0.00037978 Ry

     iteration #  4     ecut=    35.00 Ry     beta= 0.70
     Davidson diagonalization with overlap
     ethr =  5.59E-07,  avg # of iterations =  2.0

     negative rho (up, down):  1.665E-03 0.000E+00

     total cpu time spent up to now is      331.7 secs

     total energy              =    -210.55447692 Ry
     estimated scf accuracy    <       0.00006211 Ry

     iteration #  5     ecut=    35.00 Ry     beta= 0.70
     Davidson diagonalization with overlap
     ethr =  9.13E-08,  avg # of iterations =  2.0

     negative rho (up, down):  1.665E-03 0.000E+00

     total cpu time spent up to now is      334.8 secs

     total energy              =    -210.55448711 Ry
     estimated scf accuracy    <       0.00001513 Ry

     iteration #  6     ecut=    35.00 Ry     beta= 0.70
     Davidson diagonalization with overlap
     ethr =  2.23E-08,  avg # of iterations =  2.0

     negative rho (up, down):  1.665E-03 0.000E+00

     total cpu time spent up to now is      337.7 secs

     total energy              =    -210.55448921 Ry
     estimated scf accuracy    <       0.00000370 Ry

     iteration #  7     ecut=    35.00 Ry     beta= 0.70
     Davidson diagonalization with overlap
     ethr =  5.44E-09,  avg # of iterations =  2.0

     negative rho (up, down):  1.665E-03 0.000E+00

     total cpu time spent up to now is      341.2 secs

     total energy              =    -210.55448961 Ry
     estimated scf accuracy    <       0.00000263 Ry

     iteration #  8     ecut=    35.00 Ry     beta= 0.70
     Davidson diagonalization with overlap
     ethr =  3.87E-09,  avg # of iterations =  1.0

     negative rho (up, down):  1.665E-03 0.000E+00

     total cpu time spent up to now is      344.4 secs

     total energy              =    -210.55448992 Ry
     estimated scf accuracy    <       0.00000061 Ry

     iteration #  9     ecut=    35.00 Ry     beta= 0.70
     Davidson diagonalization with overlap
     ethr =  9.01E-10,  avg # of iterations =  2.0

     negative rho (up, down):  1.664E-03 0.000E+00

     total cpu time spent up to now is      347.2 secs

     total energy              =    -210.55449000 Ry
     estimated scf accuracy    <       0.00000002 Ry

     iteration # 10     ecut=    35.00 Ry     beta= 0.70
     Davidson diagonalization with overlap
     ethr =  2.66E-11,  avg # of iterations =  4.0

     negative rho (up, down):  1.664E-03 0.000E+00

     total cpu time spent up to now is      351.0 secs

     total energy              =    -210.55449000 Ry
     estimated scf accuracy    <       0.00000001 Ry

     iteration # 11     ecut=    35.00 Ry     beta= 0.70
     Davidson diagonalization with overlap
     ethr =  1.81E-11,  avg # of iterations =  4.0

     negative rho (up, down):  1.664E-03 0.000E+00

     total cpu time spent up to now is      354.3 secs

     total energy              =    -210.55449001 Ry
     estimated scf accuracy    <          3.0E-09 Ry

     iteration # 12     ecut=    35.00 Ry     beta= 0.70
     Davidson diagonalization with overlap
     ethr =  4.46E-12,  avg # of iterations =  2.0

     negative rho (up, down):  1.664E-03 0.000E+00

     total cpu time spent up to now is      357.6 secs

     End of self-consistent calculation

          k = 0.0000 0.0000 0.0000 (  8214 PWs)   bands (ev):

   -21.5191 -19.2918 -19.1943 -19.1663 -18.9997 -18.9850 -17.2077 -14.9786
   -14.5834 -14.5720 -13.0642 -12.7405 -12.7193 -12.1654 -12.0762 -12.0715
   -10.3809 -10.3678  -9.5113  -8.6538  -8.2386  -8.2291  -7.5475  -6.8419
    -6.7966  -6.7844  -6.5930  -6.5813  -6.5026  -6.3832  -6.1442  -4.9358
    -2.0831  -1.9511  -1.9004  -1.4417  -1.3719   0.1270   1.0531   1.7720
     2.0636

     the Fermi energy is    -1.9201 ev

!    total energy              =    -210.55449001 Ry
     estimated scf accuracy    <          3.2E-10 Ry
     smearing contrib. (-TS)   =      -0.01222281 Ry
     internal energy E=F+TS    =    -210.54226720 Ry

     The total energy is F=E-TS. E is the sum of the following terms:
     one-electron contribution =   -1251.48675112 Ry
     hartree contribution      =     637.37924950 Ry
     xc contribution           =     -78.39838663 Ry
     ewald contribution        =     481.96362105 Ry

     convergence has been achieved in  12 iterations

     negative rho (up, down):  1.664E-03 0.000E+00

     Forces acting on atoms (cartesian axes, Ry/au):

     atom    1 type  1   force =     0.01512425    0.03157720    0.00000003
     atom    2 type  1   force =    -0.00401149    0.01788940    0.00000002
     atom    3 type  1   force =     0.01212429   -0.00416581    0.00000002
     atom    4 type  1   force =    -0.00993274    0.02086973   -0.00000001
     atom    5 type  1   force =     0.00981989    0.00847809   -0.00000000
     atom    6 type  1   force =     0.02373812    0.01925612    0.00000001
     atom    7 type  1   force =     0.00926644   -0.00544164   -0.00000000
     atom    8 type  1   force =     0.00811521    0.02614113   -0.00000000
     atom    9 type  1   force =    -0.01960733    0.01021129   -0.00000001
     atom   10 type  1   force =    -0.00093391   -0.02927788   -0.00000003
     atom   11 type  1   force =    -0.02315891   -0.01734659   -0.00000002
     atom   12 type  1   force =     0.00098697    0.00125776   -0.00000002
     atom   13 type  1   force =    -0.01336741   -0.02039204    0.00000001
     atom   14 type  1   force =     0.00618338   -0.01955559    0.00000002
     atom   15 type  1   force =     0.00089830    0.00023907   -0.00000001
     atom   16 type  1   force =     0.00626083   -0.02615009   -0.00000001
     atom   17 type  1   force =    -0.02150588   -0.01359014   -0.00000000

     Total force =     0.093812     Total SCF correction =     0.000034
     Energy error            =      1.4E-04
     Gradient error          =      3.2E-02

     number of scf cycles    =   8
     number of bfgs steps    =   6

     energy   old            =    -210.5543488004 Ry
     energy   new            =    -210.5544900061 Ry

     CASE: energy  _new < energy  _old

     new trust radius        =       0.0015369303 bohr
     new conv_thr            =       0.0000000001 Ry


ATOMIC_POSITIONS (angstrom)
C             0.0186569110       -0.0003333348       -0.0000001278
C            -1.2446868207        2.1306419404       -0.0000000309
C            -2.4604030804        4.2824553236       -0.0000000120
C             2.4452837166       -0.0038795302        0.0000000486
C             1.2345812126        2.0281309751        0.0000000236
C            -0.0872112185        4.3246942802       -0.0000000291
C             4.9283617790        0.0128171062        0.0000000167
C             3.7094693410        2.1323559679        0.0000000181
C             2.5508255137        4.3220260431        0.0000000702
C            -0.0074280363        1.4416381161        0.0000000622
C            -1.2182945031        3.5305077762       -0.0000000692
C            -2.4630966805        5.6883192968       -0.0000000140
C             2.4673406227        1.4434115312       -0.0000000800
C             0.0283815143        5.6760008749        0.0000000746
C             4.9264335671        1.4220068359        0.0000000152
C             3.6764255900        3.5279615860        0.0000001190
C             2.4304229158        5.6777093458       -0.0000000851



     Writing output data file ./outvac/vacancy.save/
     NEW-OLD atomic charge density approx. for the potential

     Check: negative core charge=   -0.000025

     negative rho (up, down):  1.664E-03 0.000E+00

     total cpu time spent up to now is      360.8 secs

     Self-consistent Calculation

     iteration #  1     ecut=    35.00 Ry     beta= 0.70
     Davidson diagonalization with overlap
     ethr =  1.00E-06,  avg # of iterations =  2.0

     Threshold (ethr) on eigenvalues was too large:
     Diagonalizing with lowered threshold

     Davidson diagonalization with overlap
     ethr =  2.72E-08,  avg # of iterations =  2.0

     negative rho (up, down):  1.665E-03 0.000E+00

     total cpu time spent up to now is      367.8 secs

     total energy              =    -210.55462724 Ry
[...]

     Total force =     0.006624     Total SCF correction =     0.000028
     Energy error            =      1.5E-04
     Gradient error          =      2.9E-03

     number of scf cycles    =  19
     number of bfgs steps    =  17

     energy   old            =    -210.5600547699 Ry
     energy   new            =    -210.5602074548 Ry

     CASE: energy  _new < energy  _old

     new trust radius        =       0.0023898642 bohr
     new conv_thr            =       0.0000000002 Ry


ATOMIC_POSITIONS (angstrom)
C             0.0299110129        0.0182645137       -0.0000000867
C            -1.2451795228        2.1360965174       -0.0000001025
C            -2.4483924061        4.2820400448       -0.0000000558
C             2.4422926439        0.0042043055        0.0000000722
C             1.2448603459        2.0442942616        0.0000001684
C            -0.0642898899        4.3279175434        0.0000000442
C             4.9371099291        0.0121159345        0.0000001116
C             3.7165885647        2.1441759517        0.0000000479
C             2.5236811325        4.3096662023       -0.0000001351
C            -0.0092155305        1.4310272267        0.0000000941
C            -1.2326935810        3.5276779370       -0.0000003371
C            -2.4576925483        5.6913918536       -0.0000000316
C             2.4583914116        1.4388882029       -0.0000003155
C             0.0298153905        5.6655966062        0.0000004951
C             4.9307805193        1.4221728002        0.0000000298
C             3.6671850153        3.5184848669        0.0000002678
C             2.4119098571        5.6624493659       -0.0000002669



     Writing output data file ./outvac/vacancy.save/
     NEW-OLD atomic charge density approx. for the potential

     Check: negative core charge=   -0.000025

     negative rho (up, down):  1.663E-03 0.000E+00

     total cpu time spent up to now is      827.6 secs

     Self-consistent Calculation

     iteration #  1     ecut=    35.00 Ry     beta= 0.70
     Davidson diagonalization with overlap
     ethr =  1.00E-06,  avg # of iterations =  2.0

     Threshold (ethr) on eigenvalues was too large:
     Diagonalizing with lowered threshold

     Davidson diagonalization with overlap
     ethr =  1.93E-08,  avg # of iterations =  4.0

     negative rho (up, down):  1.663E-03 0.000E+00

     total cpu time spent up to now is      833.1 secs

     total energy              =    -210.56020825 Ry
     estimated scf accuracy    <       0.00001521 Ry

     iteration #  2     ecut=    35.00 Ry     beta= 0.70
     Davidson diagonalization with overlap
     ethr =  2.24E-08,  avg # of iterations =  4.0

     negative rho (up, down):  1.663E-03 0.000E+00

     total cpu time spent up to now is      836.4 secs

     total energy              =    -210.56020594 Ry
     estimated scf accuracy    <       0.00004233 Ry

     iteration #  3     ecut=    35.00 Ry     beta= 0.70
     Davidson diagonalization with overlap
     ethr =  2.24E-08,  avg # of iterations =  4.0

     negative rho (up, down):  1.663E-03 0.000E+00

     total cpu time spent up to now is      839.6 secs

     total energy              =    -210.56021318 Ry
     estimated scf accuracy    <       0.00000508 Ry

     iteration #  4     ecut=    35.00 Ry     beta= 0.70
     Davidson diagonalization with overlap
     ethr =  7.47E-09,  avg # of iterations =  2.0

     negative rho (up, down):  1.663E-03 0.000E+00

     total cpu time spent up to now is      842.4 secs

     total energy              =    -210.56021383 Ry
     estimated scf accuracy    <       0.00000168 Ry

     iteration #  5     ecut=    35.00 Ry     beta= 0.70
     Davidson diagonalization with overlap
     ethr =  2.47E-09,  avg # of iterations =  3.0

     negative rho (up, down):  1.663E-03 0.000E+00

     total cpu time spent up to now is      845.1 secs

     total energy              =    -210.56021409 Ry
     estimated scf accuracy    <       0.00000061 Ry

     iteration #  6     ecut=    35.00 Ry     beta= 0.70
     Davidson diagonalization with overlap
     ethr =  9.00E-10,  avg # of iterations =  2.0

     negative rho (up, down):  1.663E-03 0.000E+00

     total cpu time spent up to now is      848.0 secs

     total energy              =    -210.56021418 Ry
     estimated scf accuracy    <       0.00000004 Ry

     iteration #  7     ecut=    35.00 Ry     beta= 0.70
     Davidson diagonalization with overlap
     ethr =  5.33E-11,  avg # of iterations =  4.0

     negative rho (up, down):  1.663E-03 0.000E+00

     total cpu time spent up to now is      851.3 secs

     total energy              =    -210.56021418 Ry
     estimated scf accuracy    <       0.00000001 Ry

     iteration #  8     ecut=    35.00 Ry     beta= 0.70
     Davidson diagonalization with overlap
     ethr =  1.60E-11,  avg # of iterations =  4.0

     negative rho (up, down):  1.663E-03 0.000E+00

     total cpu time spent up to now is      854.2 secs

     total energy              =    -210.56021419 Ry
     estimated scf accuracy    <          7.7E-09 Ry

     iteration #  9     ecut=    35.00 Ry     beta= 0.70
     Davidson diagonalization with overlap
     ethr =  1.13E-11,  avg # of iterations =  2.0

     negative rho (up, down):  1.663E-03 0.000E+00

     total cpu time spent up to now is      856.8 secs

     total energy              =    -210.56021419 Ry
     estimated scf accuracy    <          9.7E-10 Ry

     iteration # 10     ecut=    35.00 Ry     beta= 0.70
     Davidson diagonalization with overlap
     ethr =  1.43E-12,  avg # of iterations =  4.0

     negative rho (up, down):  1.663E-03 0.000E+00

     total cpu time spent up to now is      859.8 secs

     End of self-consistent calculation

          k = 0.0000 0.0000 0.0000 (  8214 PWs)   bands (ev):

   -21.4885 -19.2988 -19.1764 -19.0474 -19.0264 -18.9502 -17.2115 -15.0316
   -14.5427 -14.4695 -13.0765 -12.7404 -12.6471 -12.1642 -12.0320 -11.9918
   -10.4416 -10.3390  -9.4896  -8.6048  -8.2440  -8.1488  -7.5034  -6.8697
    -6.8069  -6.6790  -6.6065  -6.6006  -6.5517  -6.3175  -6.1789  -4.9269
    -2.3163  -1.8650  -1.7125  -1.5466  -1.2832   0.0896   1.0543   1.7742
     2.0657

     the Fermi energy is    -1.7897 ev

!    total energy              =    -210.56021419 Ry
     estimated scf accuracy    <          1.1E-10 Ry
     smearing contrib. (-TS)   =      -0.00847358 Ry
     internal energy E=F+TS    =    -210.55174061 Ry

     The total energy is F=E-TS. E is the sum of the following terms:
     one-electron contribution =   -1250.63107893 Ry
     hartree contribution      =     636.96704421 Ry
     xc contribution           =     -78.36774519 Ry
     ewald contribution        =     481.48003929 Ry

     convergence has been achieved in  10 iterations

     negative rho (up, down):  1.663E-03 0.000E+00

     Forces acting on atoms (cartesian axes, Ry/au):

     atom    1 type  1   force =     0.00012941    0.00064062    0.00000000
     atom    2 type  1   force =     0.00023068   -0.00107919   -0.00000001
     atom    3 type  1   force =     0.00067509    0.00042097   -0.00000001
     atom    4 type  1   force =    -0.00001228   -0.00000754   -0.00000000
     atom    5 type  1   force =     0.00100853   -0.00030274    0.00000003
     atom    6 type  1   force =     0.00001260    0.00040251    0.00000000
     atom    7 type  1   force =    -0.00104352   -0.00059148    0.00000002
     atom    8 type  1   force =    -0.00024181   -0.00207567    0.00000000
     atom    9 type  1   force =     0.00010736    0.00061306    0.00000000
     atom   10 type  1   force =    -0.00095303   -0.00026332    0.00000003
     atom   11 type  1   force =    -0.00062106    0.00060497   -0.00000004
     atom   12 type  1   force =    -0.00057076   -0.00084821    0.00000001
     atom   13 type  1   force =     0.00000404    0.00073348   -0.00000005
     atom   14 type  1   force =     0.00034207   -0.00002910    0.00000004
     atom   15 type  1   force =     0.00058494    0.00147430   -0.00000000
     atom   16 type  1   force =    -0.00016655    0.00095261    0.00000002
     atom   17 type  1   force =     0.00051429   -0.00064527   -0.00000004

     Total force =     0.004160     Total SCF correction =     0.000024
     Energy error            =      6.7E-06
     Gradient error          =      2.1E-03

     number of scf cycles    =  20
     number of bfgs steps    =  18

     energy   old            =    -210.5602074548 Ry
     energy   new            =    -210.5602141879 Ry

     CASE: energy  _new < energy  _old

     new trust radius        =       0.0011021270 bohr
     new conv_thr            =            1.0E-10 Ry


ATOMIC_POSITIONS (angstrom)
C             0.0300580264        0.0185288217       -0.0000000860
C            -1.2451030957        2.1358190070       -0.0000001058
C            -2.4481236095        4.2821768282       -0.0000000578
C             2.4421728297        0.0042054333        0.0000000723
C             1.2451463427        2.0438250524        0.0000001755
C            -0.0645955452        4.3281736140        0.0000000453
C             4.9368899678        0.0119892386        0.0000001170
C             3.7165389029        2.1436819906        0.0000000502
C             2.5241459101        4.3100185202       -0.0000001340
C            -0.0095784314        1.4308213719        0.0000001029
C            -1.2329446646        3.5278382298       -0.0000003509
C            -2.4578416462        5.6911495101       -0.0000000309
C             2.4583807818        1.4389700067       -0.0000003306
C             0.0298519832        5.6656614611        0.0000005069
C             4.9309108775        1.4225197016        0.0000000296
C             3.6672147649        3.5186078420        0.0000002737
C             2.4119389499        5.6624775049       -0.0000002776



     Writing output data file ./outvac/vacancy.save/
     NEW-OLD atomic charge density approx. for the potential

     Check: negative core charge=   -0.000025

     negative rho (up, down):  1.663E-03 0.000E+00

     total cpu time spent up to now is      862.7 secs

     Self-consistent Calculation

     iteration #  1     ecut=    35.00 Ry     beta= 0.70
     Davidson diagonalization with overlap
     ethr =  1.00E-06,  avg # of iterations =  2.0

     Threshold (ethr) on eigenvalues was too large:
     Diagonalizing with lowered threshold

     Davidson diagonalization with overlap
     ethr =  6.93E-09,  avg # of iterations =  4.0

     negative rho (up, down):  1.663E-03 0.000E+00

     total cpu time spent up to now is      868.4 secs

     total energy              =    -210.56021639 Ry
     estimated scf accuracy    <       0.00000515 Ry

     iteration #  2     ecut=    35.00 Ry     beta= 0.70
     Davidson diagonalization with overlap
     ethr =  7.58E-09,  avg # of iterations =  4.0

     negative rho (up, down):  1.663E-03 0.000E+00

     total cpu time spent up to now is      871.8 secs

     total energy              =    -210.56021309 Ry
     estimated scf accuracy    <       0.00004576 Ry

     iteration #  3     ecut=    35.00 Ry     beta= 0.70
     Davidson diagonalization with overlap
     ethr =  7.58E-09,  avg # of iterations =  3.0

     negative rho (up, down):  1.663E-03 0.000E+00

     total cpu time spent up to now is      875.0 secs

     total energy              =    -210.56021872 Ry
     estimated scf accuracy    <       0.00000054 Ry

     iteration #  4     ecut=    35.00 Ry     beta= 0.70
     Davidson diagonalization with overlap
     ethr =  7.99E-10,  avg # of iterations =  3.0

     negative rho (up, down):  1.663E-03 0.000E+00

     total cpu time spent up to now is      877.8 secs

     total energy              =    -210.56021880 Ry
     estimated scf accuracy    <       0.00000011 Ry

     iteration #  5     ecut=    35.00 Ry     beta= 0.70
     Davidson diagonalization with overlap
     ethr =  1.55E-10,  avg # of iterations =  2.0

     negative rho (up, down):  1.663E-03 0.000E+00

     total cpu time spent up to now is      880.8 secs

     total energy              =    -210.56021881 Ry
     estimated scf accuracy    <       0.00000004 Ry

     iteration #  6     ecut=    35.00 Ry     beta= 0.70
     Davidson diagonalization with overlap
     ethr =  6.55E-11,  avg # of iterations =  2.0

     negative rho (up, down):  1.663E-03 0.000E+00

     total cpu time spent up to now is      883.6 secs

     total energy              =    -210.56021882 Ry
     estimated scf accuracy    <       0.00000001 Ry

     iteration #  7     ecut=    35.00 Ry     beta= 0.70
     Davidson diagonalization with overlap
     ethr =  1.60E-11,  avg # of iterations =  2.0

     negative rho (up, down):  1.663E-03 0.000E+00

     total cpu time spent up to now is      886.5 secs

     total energy              =    -210.56021882 Ry
     estimated scf accuracy    <          2.5E-09 Ry

     iteration #  8     ecut=    35.00 Ry     beta= 0.70
     Davidson diagonalization with overlap
     ethr =  3.62E-12,  avg # of iterations =  2.0

     negative rho (up, down):  1.663E-03 0.000E+00

     total cpu time spent up to now is      889.2 secs

     total energy              =    -210.56021882 Ry
     estimated scf accuracy    <          5.6E-10 Ry

     iteration #  9     ecut=    35.00 Ry     beta= 0.70
     Davidson diagonalization with overlap
     ethr =  8.28E-13,  avg # of iterations =  2.0

     negative rho (up, down):  1.663E-03 0.000E+00

     total cpu time spent up to now is      892.2 secs

     End of self-consistent calculation

          k = 0.0000 0.0000 0.0000 (  8214 PWs)   bands (ev):

   -21.4892 -19.2994 -19.1786 -19.0474 -19.0271 -18.9503 -17.2109 -15.0328
   -14.5432 -14.4699 -13.0766 -12.7415 -12.6476 -12.1645 -12.0332 -11.9933
   -10.4412 -10.3375  -9.4901  -8.6055  -8.2464  -8.1488  -7.5043  -6.8699
    -6.8076  -6.6793  -6.6067  -6.5999  -6.5527  -6.3141  -6.1799  -4.9263
    -2.3167  -1.8650  -1.7125  -1.5460  -1.2816   0.0906   1.0542   1.7741
     2.0657

     the Fermi energy is    -1.7897 ev

!    total energy              =    -210.56021882 Ry
     estimated scf accuracy    <          6.4E-11 Ry
     smearing contrib. (-TS)   =      -0.00846809 Ry
     internal energy E=F+TS    =    -210.55175073 Ry

     The total energy is F=E-TS. E is the sum of the following terms:
     one-electron contribution =   -1250.65667501 Ry
     hartree contribution      =     636.97968703 Ry
     xc contribution           =     -78.36893524 Ry
     ewald contribution        =     481.49417250 Ry

     convergence has been achieved in   9 iterations

     negative rho (up, down):  1.663E-03 0.000E+00

     Forces acting on atoms (cartesian axes, Ry/au):

     atom    1 type  1   force =    -0.00025820   -0.00009591    0.00000001
     atom    2 type  1   force =     0.00014635   -0.00014450   -0.00000001
     atom    3 type  1   force =     0.00024526   -0.00009498   -0.00000001
     atom    4 type  1   force =     0.00012313   -0.00054670   -0.00000000
     atom    5 type  1   force =     0.00010258    0.00008227    0.00000003
     atom    6 type  1   force =     0.00004532   -0.00001845   -0.00000000
     atom    7 type  1   force =     0.00000458    0.00005664    0.00000002
     atom    8 type  1   force =    -0.00009013   -0.00027167   -0.00000001
     atom    9 type  1   force =     0.00016510   -0.00010611   -0.00000000
     atom   10 type  1   force =    -0.00008899    0.00011798    0.00000003
     atom   11 type  1   force =    -0.00011775    0.00024520   -0.00000004
     atom   12 type  1   force =    -0.00004150    0.00011792    0.00000001
     atom   13 type  1   force =     0.00016471    0.00029189   -0.00000006
     atom   14 type  1   force =    -0.00037995    0.00012194    0.00000005
     atom   15 type  1   force =     0.00020777    0.00008725    0.00000000
     atom   16 type  1   force =    -0.00038433    0.00010646    0.00000002
     atom   17 type  1   force =     0.00015606    0.00005077   -0.00000003

     Total force =     0.001125     Total SCF correction =     0.000017
     Energy error            =      4.6E-06
     Gradient error          =      5.5E-04

     bfgs converged in  21 scf cycles and  19 bfgs steps
     (criteria: energy <  1.0E-04 Ry, force <  1.0E-03 Ry/Bohr)

     End of BFGS Geometry Optimization

     Final energy   =    -210.5602188195 Ry

     File ./outvac/vacancy.bfgs deleted, as requested
Begin final coordinates

ATOMIC_POSITIONS (angstrom)
C             0.0300580264        0.0185288217       -0.0000000860
C            -1.2451030957        2.1358190070       -0.0000001058
C            -2.4481236095        4.2821768282       -0.0000000578
C             2.4421728297        0.0042054333        0.0000000723
C             1.2451463427        2.0438250524        0.0000001755
C            -0.0645955452        4.3281736140        0.0000000453
C             4.9368899678        0.0119892386        0.0000001170
C             3.7165389029        2.1436819906        0.0000000502
C             2.5241459101        4.3100185202       -0.0000001340
C            -0.0095784314        1.4308213719        0.0000001029
C            -1.2329446646        3.5278382298       -0.0000003509
C            -2.4578416462        5.6911495101       -0.0000000309
C             2.4583807818        1.4389700067       -0.0000003306
C             0.0298519832        5.6656614611        0.0000005069
C             4.9309108775        1.4225197016        0.0000000296
C             3.6672147649        3.5186078420        0.0000002737
C             2.4119389499        5.6624775049       -0.0000002776
End final coordinates



     Writing output data file ./outvac/vacancy.save/

     init_run     :      4.08s CPU      1.66s WALL (       1 calls)
     electrons    :   2346.73s CPU    825.11s WALL (      21 calls)
     update_pot   :     45.79s CPU      9.70s WALL (      20 calls)
     forces       :    137.81s CPU     46.45s WALL (      21 calls)

     Called by init_run:
     wfcinit      :      1.35s CPU      0.90s WALL (       1 calls)
     potinit      :      1.03s CPU      0.26s WALL (       1 calls)
     hinit0       :      0.74s CPU      0.19s WALL (       1 calls)

     Called by electrons:
     c_bands      :    890.57s CPU    457.11s WALL (     256 calls)
     sum_band     :    810.31s CPU    179.57s WALL (     256 calls)
     v_of_rho     :    255.39s CPU     64.24s WALL (     272 calls)
     newd         :    420.15s CPU    118.09s WALL (     272 calls)
     mix_rho      :     12.32s CPU     11.71s WALL (     256 calls)

     Called by c_bands:
     init_us_2    :     13.64s CPU      2.48s WALL (     513 calls)
     regterg      :    868.97s CPU    453.54s WALL (     256 calls)

     Called by *egterg:
     rdiaghg      :     36.85s CPU      7.12s WALL (     935 calls)
     h_psi        :    427.46s CPU    279.32s WALL (     961 calls)
     s_psi        :    125.59s CPU     31.79s WALL (     961 calls)
     g_psi        :     12.71s CPU      2.27s WALL (     704 calls)

     Called by h_psi:
     h_psi:calbec :    102.29s CPU     96.40s WALL (     961 calls)
     vloc_psi     :    270.29s CPU    148.35s WALL (     961 calls)
     add_vuspsi   :     32.54s CPU     31.03s WALL (     961 calls)

     General routines
     calbec       :    203.68s CPU    151.41s WALL (    1301 calls)
     fft          :    219.85s CPU     63.33s WALL (    3164 calls)
     ffts         :     20.50s CPU      4.88s WALL (     528 calls)
     fftw         :    460.31s CPU    165.08s WALL (   32026 calls)
     interpolate  :     10.68s CPU      8.47s WALL (     272 calls)


     PWSCF        :  42m53.47s CPU  14m54.21s WALL


   This run was terminated on:  10:37:46   8Dec2021            

=------------------------------------------------------------------------------=
   JOB DONE.
=------------------------------------------------------------------------------=
