
     Program PWSCF v.6.7MaX starts on  8Dec2021 at 19:16:24 

     This program is part of the open-source Quantum ESPRESSO suite
     for quantum simulation of materials; please cite
         "P. Giannozzi et al., J. Phys.:Condens. Matter 21 395502 (2009);
         "P. Giannozzi et al., J. Phys.:Condens. Matter 29 465901 (2017);
          URL http://www.quantum-espresso.org", 
     in publications or presentations arising from this work. More details at
     http://www.quantum-espresso.org/quote

     Serial multi-threaded version, running on    8 processor cores
     Waiting for input...
     Reading input from standard input
Warning: card  &IONS ignored
Warning: card  / ignored

     Current dimensions of program PWSCF are:
     Max number of different atomic species (ntypx) = 10
     Max number of k-points (npk) =  40000
     Max angular momentum in pseudopotentials (lmaxx) =  3

     Atomic positions and unit cell read from directory:
     ./outvac/vacancy.save/
     Atomic positions from file used, from input discarded


     G-vector sticks info
     --------------------
     sticks:   dense  smooth     PW     G-vecs:    dense   smooth      PW
     Sum        2689    1891    511               225269   132015   18817



     bravais-lattice index     =            4
     lattice parameter (alat)  =      13.9629  a.u.
     unit-cell volume          =    4715.0297 (a.u.)^3
     number of atoms/cell      =           17
     number of atomic types    =            1
     number of electrons       =        68.00
     number of Kohn-Sham states=           41
     kinetic-energy cutoff     =      35.0000  Ry
     charge density cutoff     =     200.0000  Ry
     Exchange-correlation= PBE
                           (   1   4   3   4   0   0   0)

     celldm(1)=  13.962867  celldm(2)=   0.000000  celldm(3)=   2.000000
     celldm(4)=   0.000000  celldm(5)=   0.000000  celldm(6)=   0.000000

     crystal axes: (cart. coord. in units of alat)
               a(1) = (   1.000000   0.000000   0.000000 )  
               a(2) = (  -0.500000   0.866025   0.000000 )  
               a(3) = (   0.000000   0.000000   2.000000 )  

     reciprocal axes: (cart. coord. in units 2 pi/alat)
               b(1) = (  1.000000  0.577350 -0.000000 )  
               b(2) = (  0.000000  1.154701  0.000000 )  
               b(3) = (  0.000000 -0.000000  0.500000 )  


     PseudoPot. # 1 for C  read from file:
     /home/lucia/Programmi/qe-6.7/pseudo/C.pbe-n-rrkjus_psl.1.0.0.UPF
     MD5 check sum: 3eea53a8c0c024778a530aaaebd3d0de
     Pseudo is Ultrasoft + core correction, Zval =  4.0
     Generated using &quot;atomic&quot; code by A. Dal Corso  v.6.3MaX
     Using radial grid of 1073 points,  4 beta functions with: 
                l(1) =   0
                l(2) =   0
                l(3) =   1
                l(4) =   1
     Q(r) pseudized with 0 coefficients 


     atomic species   valence    mass     pseudopotential
        C              4.00    12.01070     C ( 1.00)

     Starting magnetic structure 
     atomic species   magnetization
        C            0.100

      2 Sym. Ops. (no inversion) found



   Cartesian axes

     site n.     atom                  positions (alat units)
         1           C   tau(   1) = (   0.0040680   0.0025077  -0.0000000  )
         2           C   tau(   2) = (  -0.1685115   0.2890605  -0.0000000  )
         3           C   tau(   3) = (  -0.3313276   0.5795473  -0.0000000  )
         4           C   tau(   4) = (   0.3305222   0.0005692   0.0000000  )
         5           C   tau(   5) = (   0.1685174   0.2766101   0.0000000  )
         6           C   tau(   6) = (  -0.0087423   0.5857724   0.0000000  )
         7           C   tau(   7) = (   0.6681558   0.0016226   0.0000000  )
         8           C   tau(   8) = (   0.5029942   0.2901246   0.0000000  )
         9           C   tau(   9) = (   0.3416164   0.5833153  -0.0000000  )
        10           C   tau(  10) = (  -0.0012963   0.1936465   0.0000000  )
        11           C   tau(  11) = (  -0.1668660   0.4774555  -0.0000000  )
        12           C   tau(  12) = (  -0.3326428   0.7702368  -0.0000000  )
        13           C   tau(  13) = (   0.3327158   0.1947493  -0.0000000  )
        14           C   tau(  14) = (   0.0040401   0.7667873   0.0000001  )
        15           C   tau(  15) = (   0.6673465   0.1925230   0.0000000  )
        16           C   tau(  16) = (   0.4963187   0.4762063   0.0000000  )
        17           C   tau(  17) = (   0.3264304   0.7663563  -0.0000000  )

     number of k points=    25 (tetrahedron method)
                       cart. coord. in units 2pi/alat
        k(    1) = (   0.0000000   0.0000000   0.0000000), wk =   0.0204082
        k(    2) = (   0.0000000   0.1649572   0.0000000), wk =   0.0408163
        k(    3) = (   0.0000000   0.3299144   0.0000000), wk =   0.0408163
        k(    4) = (   0.0000000   0.4948717   0.0000000), wk =   0.0408163
        k(    5) = (   0.1428571   0.2474358   0.0000000), wk =   0.0408163
        k(    6) = (   0.1428571   0.4123930   0.0000000), wk =   0.0408163
        k(    7) = (   0.1428571   0.5773503   0.0000000), wk =   0.0408163
        k(    8) = (   0.2857143   0.4948717   0.0000000), wk =   0.0408163
        k(    9) = (  -0.1428571   0.0824786   0.0000000), wk =   0.0408163
        k(   10) = (   0.1428571   0.0824786   0.0000000), wk =   0.0408163
        k(   11) = (  -0.2857143   0.1649572   0.0000000), wk =   0.0408163
        k(   12) = (   0.2857143   0.1649572   0.0000000), wk =   0.0408163
        k(   13) = (  -0.4285714   0.2474358   0.0000000), wk =   0.0408163
        k(   14) = (   0.4285714   0.2474358   0.0000000), wk =   0.0408163
        k(   15) = (  -0.1428571   0.2474358   0.0000000), wk =   0.0408163
        k(   16) = (   0.2857143   0.0000000   0.0000000), wk =   0.0408163
        k(   17) = (  -0.1428571   0.4123930   0.0000000), wk =   0.0408163
        k(   18) = (  -0.2857143   0.3299144   0.0000000), wk =   0.0408163
        k(   19) = (   0.4285714   0.0824786   0.0000000), wk =   0.0408163
        k(   20) = (  -0.2857143  -0.3299144   0.0000000), wk =   0.0408163
        k(   21) = (   0.4285714  -0.0824786   0.0000000), wk =   0.0408163
        k(   22) = (  -0.4285714   0.4123930   0.0000000), wk =   0.0408163
        k(   23) = (   0.5714286   0.1649572   0.0000000), wk =   0.0408163
        k(   24) = (  -0.2857143   0.4948717   0.0000000), wk =   0.0408163
        k(   25) = (   0.5714286   0.0000000   0.0000000), wk =   0.0408163

     Dense  grid:   225269 G-vectors     FFT dimensions: (  64,  64, 125)

     Smooth grid:   132015 G-vectors     FFT dimensions: (  54,  54, 108)

     Estimated max dynamical RAM per process >     346.24 MB

     Check: negative core charge=   -0.000025
     Generating pointlists ...
     new r_m :   0.0749 (alat units)  1.0452 (a.u.) for type    1

     The potential is recalculated from file :
     ./outvac/vacancy.save/charge-density


     negative rho (up, down):  8.179E-04 8.039E-04
     Starting wfcs are   68 randomized atomic wfcs

     Band Structure Calculation
     Davidson diagonalization with overlap

     ethr =  1.47E-11,  avg # of iterations = 46.1

     total cpu time spent up to now is     1775.2 secs

     End of band structure calculation

 ------ SPIN UP ------------


          k = 0.0000 0.0000 0.0000 ( 16427 PWs)   bands (ev):

   -21.4769 -19.2993 -19.1589 -19.0304 -18.9880 -18.9267 -17.1402 -15.0201
   -14.5950 -14.3854 -13.0464 -12.7089 -12.5862 -12.1608 -11.9983 -11.9447
   -10.4146 -10.3028  -9.5143  -8.5454  -8.1882  -8.1271  -7.4779  -6.8873
    -6.7625  -6.7173  -6.6624  -6.6053  -6.5981  -6.2358  -6.0915  -4.8794
    -2.3259  -2.0207  -1.6935  -1.6043  -1.1748   0.1342   1.0991   1.8338
     2.1173

          k = 0.0000 0.1650 0.0000 ( 16463 PWs)   bands (ev):

   -21.4300 -19.7371 -19.2870 -19.1759 -18.5934 -18.4881 -17.0297 -15.4601
   -14.7686 -14.1704 -13.4000 -12.8962 -12.5093 -12.1307 -11.9327 -11.2638
   -10.2816 -10.2175  -9.4552  -8.6880  -8.3442  -8.1973  -7.5052  -7.3930
    -7.0281  -6.8734  -6.7731  -6.2292  -6.2068  -6.0105  -5.9630  -4.7660
    -2.8620  -2.1406  -1.7621  -1.2372  -1.1953   0.1909   1.1728   1.7316
     1.9081

          k = 0.0000 0.3299 0.0000 ( 16473 PWs)   bands (ev):

   -21.2932 -20.2234 -19.4868 -19.2303 -18.1054 -17.8631 -16.7628 -16.1461
   -15.2529 -14.0038 -13.8697 -13.2862 -12.6449 -11.4994 -11.2578 -10.9498
    -9.9042  -9.7899  -9.2815  -9.0708  -8.7666  -8.3971  -7.9902  -7.5739
    -7.2548  -7.2380  -6.9428  -6.2615  -5.6893  -5.4991  -5.3697  -4.5179
    -3.6102  -2.4126  -2.1819  -1.3606  -0.5012   0.1493   0.9600   1.3937
     1.6643

          k = 0.0000 0.4949 0.0000 ( 16506 PWs)   bands (ev):

   -21.0961 -20.5998 -19.5879 -19.2690 -17.5617 -17.3112 -16.8182 -16.5926
   -15.5973 -14.5557 -13.7311 -13.3501 -12.8376 -11.0366 -10.7286 -10.3868
    -9.9629  -9.6165  -9.2200  -9.0223  -8.8319  -8.6520  -8.4663  -7.9433
    -7.5993  -7.3697  -6.9907  -6.2962  -5.0733  -5.0349  -4.8853  -4.4082
    -4.3256  -2.6175  -2.5732  -1.4511  -0.2579   0.1705   0.7961   1.0479
     1.7597

          k = 0.1429 0.2474 0.0000 ( 16501 PWs)   bands (ev):

   -21.3370 -20.0621 -19.6431 -18.9198 -18.5003 -17.9035 -16.8480 -15.9802
   -15.0004 -14.2226 -13.6557 -13.2139 -12.3378 -12.0906 -11.3693 -10.9998
   -10.1412  -9.7329  -9.3400  -8.9115  -8.6173  -8.3180  -7.7899  -7.5999
    -7.4248  -6.9871  -6.5881  -6.4194  -6.0838  -5.6177  -5.4499  -4.6116
    -3.4080  -2.3270  -1.9222  -1.4576  -0.6999   0.2439   1.1111   1.3200
     1.9186

          k = 0.1429 0.4124 0.0000 ( 16492 PWs)   bands (ev):

   -21.1620 -20.4486 -19.8142 -18.9040 -18.0986 -17.2568 -16.8219 -16.3745
   -15.4145 -14.4417 -14.2034 -13.0933 -12.5318 -11.4632 -10.8888 -10.5054
    -9.8715  -9.4931  -9.2813  -9.1161  -8.9213  -8.4672  -8.2551  -7.7633
    -7.6513  -7.4650  -6.5590  -6.4562  -5.6363  -5.1522  -4.8741  -4.4968
    -3.9849  -2.5170  -2.3976  -1.5320  -0.3079   0.0789   0.6919   1.5462
     1.6139

          k = 0.1429 0.5774 0.0000 ( 16478 PWs)   bands (ev):

   -21.0032 -20.6846 -19.8701 -18.9137 -17.7531 -17.1836 -16.7799 -16.4479
   -15.6333 -14.6953 -14.2833 -13.1284 -12.5507 -11.0073 -10.6368 -10.3149
    -9.8655  -9.7318  -9.2116  -9.0161  -8.8960  -8.5696  -8.4538  -8.0302
    -7.7161  -7.6271  -6.5779  -6.4536  -5.2401  -4.8963  -4.7899  -4.4307
    -4.2557  -2.6829  -2.5786  -1.5434  -0.3863   0.1742   0.5301   1.4268
     2.0151

          k = 0.2857 0.4949 0.0000 ( 16485 PWs)   bands (ev):

   -20.9650 -20.6747 -20.0549 -18.4856 -18.1527 -17.3036 -16.5476 -16.2373
   -15.6415 -14.7965 -14.5980 -13.1763 -12.0468 -11.3779 -10.6871 -10.1415
   -10.0165  -9.5298  -9.2929  -8.9487  -8.8643  -8.5247  -8.4835  -7.9491
    -7.8912  -7.4351  -6.8640  -6.0633  -5.6942  -4.9040  -4.8435  -4.3695
    -4.0809  -2.5685  -2.5622  -1.7159  -0.3991  -0.0308   0.5722   1.8832
     1.9784

          k =-0.1429 0.0825 0.0000 ( 16463 PWs)   bands (ev):

   -21.4298 -19.7260 -19.3628 -19.0895 -18.6542 -18.4477 -17.0295 -15.4809
   -14.7500 -14.1495 -13.3820 -12.9374 -12.5197 -12.1299 -11.8928 -11.3434
   -10.3245 -10.1197  -9.4555  -8.6859  -8.3420  -8.1684  -7.5374  -7.3991
    -7.0683  -6.7940  -6.7168  -6.2893  -6.2678  -6.0017  -5.9463  -4.7738
    -2.8733  -2.1246  -1.7348  -1.2599  -1.1979   0.1960   1.1728   1.7709
     1.9067

          k = 0.1429 0.0825 0.0000 ( 16463 PWs)   bands (ev):

   -21.4295 -19.7123 -19.4173 -19.0233 -18.6882 -18.4401 -17.0286 -15.4751
   -14.7808 -14.1053 -13.3802 -12.9252 -12.5495 -12.0589 -11.9683 -11.4158
   -10.2449 -10.1262  -9.4559  -8.6418  -8.2949  -8.2430  -7.5343  -7.4137
    -7.0705  -6.7488  -6.6710  -6.3812  -6.2658  -6.0319  -5.9268  -4.7810
    -2.8648  -2.1465  -1.6399  -1.3561  -1.1735   0.1923   1.1727   1.8678
     1.9077

          k =-0.2857 0.1650 0.0000 ( 16473 PWs)   bands (ev):

   -21.2925 -20.2124 -19.5667 -19.1406 -18.1723 -17.8106 -16.7630 -16.1849
   -15.2042 -14.0094 -13.8065 -13.3670 -12.6038 -11.5674 -11.2166 -11.0892
    -9.8917  -9.6889  -9.2829  -9.0593  -8.7288  -8.3269  -7.9913  -7.6665
    -7.2982  -7.1030  -6.8619  -6.4393  -5.7277  -5.4843  -5.3526  -4.5492
    -3.6261  -2.3935  -2.1222  -1.4053  -0.5056   0.2131   0.9663   1.3936
     1.6974

          k = 0.2857 0.1650 0.0000 ( 16473 PWs)   bands (ev):

   -21.2912 -20.2040 -19.6184 -19.0808 -18.2035 -17.7981 -16.7638 -16.1905
   -15.1967 -13.9094 -13.8189 -13.4408 -12.5930 -11.5450 -11.4140 -11.0839
    -9.8536  -9.5801  -9.2848  -9.0023  -8.6876  -8.3489  -8.0002  -7.6721
    -7.3002  -6.9527  -6.8164  -6.7023  -5.7224  -5.4687  -5.3883  -4.5789
    -3.6233  -2.4028  -1.8444  -1.6842  -0.4612   0.2374   1.0514   1.3935
     1.6699

          k =-0.4286 0.2474 0.0000 ( 16506 PWs)   bands (ev):

   -21.0958 -20.5894 -19.6688 -19.1800 -17.6254 -17.2491 -16.8712 -16.5852
   -15.5412 -14.5497 -13.7021 -13.4280 -12.7873 -11.1828 -10.7866 -10.3696
    -9.9821  -9.5592  -9.2036  -9.0271  -8.7369  -8.5225  -8.4628  -7.8713
    -7.6247  -7.4138  -6.9100  -6.5115  -5.1114  -5.0256  -4.8479  -4.4809
    -4.3323  -2.5645  -2.5460  -1.4975  -0.1681   0.2144   0.7379   1.0994
     1.7595

          k = 0.4286 0.2474 0.0000 ( 16506 PWs)   bands (ev):

   -21.0926 -20.5848 -19.7201 -19.1226 -17.6552 -17.2303 -16.8751 -16.6159
   -15.4882 -14.5031 -13.6791 -13.5136 -12.7751 -11.3832 -10.7448 -10.3861
    -9.9582  -9.4432  -9.2758  -9.0322  -8.6244  -8.4662  -8.3555  -7.8538
    -7.5875  -7.4160  -6.8645  -6.8047  -5.0987  -5.0226  -4.8744  -4.5226
    -4.3614  -2.5694  -2.2793  -1.7575   0.0077   0.2358   0.7648   1.0295
     1.7593

          k =-0.1429 0.2474 0.0000 ( 16501 PWs)   bands (ev):

   -21.3380 -20.0646 -19.6304 -18.9313 -18.5011 -17.8986 -16.8501 -15.9857
   -14.9874 -14.1930 -13.6982 -13.3270 -12.2336 -11.9640 -11.4807 -10.8787
   -10.1217  -9.8611  -9.3387  -9.0364  -8.6309  -8.2154  -7.7851  -7.6632
    -7.4178  -6.9770  -6.6384  -6.3017  -6.0866  -5.6425  -5.4031  -4.5937
    -3.4189  -2.3302  -2.0614  -1.3177  -0.6832   0.2177   0.9905   1.3202
     1.9587

          k = 0.2857 0.0000 0.0000 ( 16501 PWs)   bands (ev):

   -21.3364 -20.0587 -19.6523 -18.9197 -18.4945 -17.9005 -16.8458 -16.0039
   -14.9833 -14.2204 -13.6238 -13.1614 -12.4100 -12.1692 -11.3237 -11.0355
   -10.1992  -9.6241  -9.3408  -8.8863  -8.5719  -8.3288  -7.7939  -7.6264
    -7.4287  -6.8456  -6.6140  -6.5538  -6.0802  -5.6075  -5.4751  -4.6316
    -3.4191  -2.2943  -1.8414  -1.5272  -0.7406   0.2882   1.1940   1.3199
     1.8933

          k =-0.1429 0.4124 0.0000 ( 16492 PWs)   bands (ev):

   -21.1635 -20.4468 -19.8127 -18.9032 -18.1041 -17.2492 -16.8205 -16.3907
   -15.3974 -14.4260 -14.2217 -13.1961 -12.4490 -11.3519 -10.8546 -10.5648
    -9.8830  -9.5192  -9.3086  -9.1142  -8.9959  -8.4393  -8.2567  -7.8908
    -7.6458  -7.3283  -6.5804  -6.4003  -5.6647  -5.1600  -4.8012  -4.4557
    -4.0448  -2.5242  -2.4782  -1.4546  -0.1567  -0.0435   0.5459   1.6141
     1.6271

          k =-0.2857 0.3299 0.0000 ( 16492 PWs)   bands (ev):

   -21.1632 -20.4392 -19.8358 -18.8676 -18.1331 -17.2325 -16.8308 -16.4072
   -15.3560 -14.4274 -14.2319 -13.2044 -12.4330 -11.3921 -10.8492 -10.6408
    -9.8767  -9.4866  -9.2559  -9.1157  -8.9997  -8.3178  -8.2557  -7.9911
    -7.6531  -7.2345  -6.5434  -6.5302  -5.6959  -5.1540  -4.7784  -4.4791
    -4.0638  -2.5196  -2.4449  -1.4774  -0.1068  -0.0152   0.5010   1.6141
     1.6651

          k = 0.4286 0.0825 0.0000 ( 16492 PWs)   bands (ev):

   -21.1597 -20.4371 -19.8562 -18.8485 -18.1316 -17.2387 -16.8420 -16.4041
   -15.3511 -14.3825 -14.2489 -13.0331 -12.6098 -11.5629 -11.0278 -10.4997
    -9.8451  -9.3932  -9.1683  -9.1206  -8.9512  -8.2584  -8.2482  -7.8658
    -7.6547  -7.1667  -6.9247  -6.4839  -5.6609  -5.1423  -4.8824  -4.5824
    -3.9911  -2.4954  -2.1639  -1.7432  -0.3198   0.2467   0.7205   1.5447
     1.6137

          k =-0.2857-0.3299 0.0000 ( 16492 PWs)   bands (ev):

   -21.1606 -20.4364 -19.8556 -18.8408 -18.1467 -17.2341 -16.8366 -16.4047
   -15.3448 -14.3616 -14.2895 -13.1083 -12.5320 -11.5114 -10.9531 -10.5805
    -9.8542  -9.4314  -9.1549  -9.1193  -8.9383  -8.2906  -8.2588  -7.9336
    -7.6525  -7.2110  -6.7718  -6.4937  -5.6937  -5.1440  -4.8403  -4.5383
    -4.0217  -2.5160  -2.2244  -1.6932  -0.2041   0.1489   0.6098   1.6117
     1.6138

          k = 0.4286-0.0825 0.0000 ( 16492 PWs)   bands (ev):

   -21.1609 -20.4418 -19.8377 -18.8759 -18.1129 -17.2452 -16.8366 -16.3914
   -15.3790 -14.4447 -14.1926 -13.0310 -12.5865 -11.5556 -10.9826 -10.4719
    -9.8414  -9.4733  -9.2322  -9.1189  -8.9049  -8.3435  -8.2537  -7.7694
    -7.6606  -7.3872  -6.6765  -6.5117  -5.6365  -5.1451  -4.8954  -4.5612
    -3.9737  -2.4913  -2.3191  -1.5895  -0.3765   0.2031   0.7589   1.5207
     1.6138

          k =-0.4286 0.4124 0.0000 ( 16478 PWs)   bands (ev):

   -21.0037 -20.6754 -19.8975 -18.8777 -17.7688 -17.2136 -16.7596 -16.4640
   -15.5812 -14.6982 -14.2958 -13.1059 -12.5639 -11.1314 -10.6805 -10.2793
    -9.8918  -9.7046  -9.1984  -8.9257  -8.9031  -8.5630  -8.3384  -7.9986
    -7.7257  -7.5951  -6.6581  -6.5324  -5.2531  -4.8919  -4.8157  -4.4464
    -4.2719  -2.6219  -2.5729  -1.5830  -0.3120   0.1633   0.5580   1.4477
     2.0139

          k = 0.5714 0.1650 0.0000 ( 16478 PWs)   bands (ev):

   -20.9999 -20.6731 -19.9192 -18.8487 -17.7851 -17.2166 -16.7491 -16.5020
   -15.5232 -14.6460 -14.3565 -13.0406 -12.6510 -11.2759 -10.6298 -10.3029
    -9.8782  -9.6395  -9.2969  -8.9095  -8.7201  -8.5630  -8.2296  -8.0175
    -7.7215  -7.4918  -6.9524  -6.4928  -5.2679  -4.8939  -4.8308  -4.4670
    -4.2995  -2.5764  -2.4093  -1.7861  -0.1800   0.1369   0.6039   1.4303
     2.0135

          k =-0.2857 0.4949 0.0000 ( 16485 PWs)   bands (ev):

   -20.9681 -20.6728 -20.0505 -18.4956 -18.1472 -17.3009 -16.5280 -16.2658
   -15.6293 -14.8332 -14.5693 -13.2087 -12.0251 -11.2727 -10.6798 -10.2316
    -9.9848  -9.4918  -9.3917  -8.8927  -8.8598  -8.5708  -8.5278  -7.9820
    -7.9490  -7.3742  -6.7638  -6.1013  -5.6855  -4.8662  -4.8427  -4.3005
    -4.1466  -2.6512  -2.5692  -1.6331  -0.4001  -0.0316   0.4986   1.8947
     1.9787

          k = 0.5714 0.0000 0.0000 ( 16485 PWs)   bands (ev):

   -20.9642 -20.6730 -20.0605 -18.4808 -18.1469 -17.3178 -16.5532 -16.2241
   -15.6429 -14.7881 -14.6001 -13.1555 -12.0529 -11.4410 -10.7477 -10.0866
    -9.9874  -9.4947  -9.2577  -9.0735  -8.8679  -8.5210  -8.3750  -7.9515
    -7.8401  -7.3404  -7.0579  -6.0345  -5.6920  -4.9376  -4.8435  -4.4115
    -4.0492  -2.5587  -2.5237  -1.7433  -0.4264  -0.0003   0.6206   1.8921
     1.9781

 ------ SPIN DOWN ----------


          k = 0.0000 0.0000 0.0000 ( 16427 PWs)   bands (ev):

   -21.4250 -19.2472 -19.1028 -18.9536 -18.9494 -18.8775 -17.0260 -14.9860
   -14.5083 -14.2814 -12.9453 -12.6712 -12.5521 -12.1092 -11.9506 -11.9008
   -10.3547 -10.1849  -9.4496  -8.5003  -8.1380  -8.0825  -7.4614  -6.8175
    -6.6553  -6.6461  -6.6142  -6.5463  -6.5102  -6.0767  -5.6624  -4.7321
    -2.2758  -1.8139  -1.5607  -0.8578  -0.6283   0.2535   1.1084   1.8412
     2.1245

          k = 0.0000 0.1650 0.0000 ( 16463 PWs)   bands (ev):

   -21.3783 -19.6919 -19.2400 -19.0893 -18.5402 -18.4442 -16.9204 -15.4169
   -14.6672 -14.1065 -13.3049 -12.8451 -12.4620 -12.0787 -11.8883 -11.2079
   -10.2135 -10.1083  -9.3907  -8.6464  -8.2982  -8.1488  -7.4809  -7.3303
    -6.9618  -6.7812  -6.6799  -6.1618  -6.1214  -5.9455  -5.4837  -4.6270
    -2.7963  -1.9141  -1.1026  -0.9565  -0.7498   0.3158   1.1822   1.8050
     1.9181

          k = 0.0000 0.3299 0.0000 ( 16473 PWs)   bands (ev):

   -21.2415 -20.1779 -19.4375 -19.1425 -18.0529 -17.8133 -16.6704 -16.0999
   -15.1592 -13.9345 -13.8186 -13.1896 -12.5808 -11.4648 -11.2041 -10.8465
    -9.8488  -9.7008  -9.2174  -9.0285  -8.7239  -8.3514  -7.9271  -7.5298
    -7.1880  -7.1515  -6.8490  -6.2006  -5.6209  -5.2920  -5.0551  -4.4054
    -3.5405  -2.1816  -1.3260  -0.9103  -0.4163   0.2475   1.0836   1.4031
     1.7471

          k = 0.0000 0.4949 0.0000 ( 16506 PWs)   bands (ev):

   -21.0438 -20.5546 -19.5382 -19.1799 -17.5072 -17.2471 -16.7753 -16.5358
   -15.4913 -14.4875 -13.6931 -13.2394 -12.7646 -10.9106 -10.6932 -10.3323
    -9.9243  -9.5568  -9.1614  -8.9591  -8.7788  -8.6067  -8.4021  -7.8555
    -7.5425  -7.3030  -6.8954  -6.2472  -5.0034  -4.7837  -4.6538  -4.3444
    -4.2476  -2.3268  -1.7216  -1.0005  -0.1908   0.2370   0.9682   1.1411
     1.7690

          k = 0.1429 0.2474 0.0000 ( 16501 PWs)   bands (ev):

   -21.2864 -20.0147 -19.5752 -18.8529 -18.4516 -17.8547 -16.7565 -15.9109
   -14.9122 -14.1575 -13.5908 -13.1397 -12.2721 -12.0520 -11.3106 -10.9405
   -10.0402  -9.6638  -9.2764  -8.8493  -8.5862  -8.2720  -7.7287  -7.5528
    -7.3426  -6.9099  -6.5023  -6.3427  -6.0195  -5.3851  -5.1494  -4.4915
    -3.3229  -2.1085  -1.3132  -0.7782  -0.5969   0.3543   1.1983   1.3295
     1.9750

          k = 0.1429 0.4124 0.0000 ( 16492 PWs)   bands (ev):

   -21.1119 -20.4022 -19.7472 -18.8289 -18.0521 -17.2036 -16.7687 -16.2856
   -15.3385 -14.3629 -14.1402 -13.0083 -12.4582 -11.4275 -10.8004 -10.4434
    -9.7817  -9.4497  -9.2331  -9.0535  -8.8780  -8.3980  -8.1927  -7.7003
    -7.5705  -7.4038  -6.4720  -6.4008  -5.5658  -4.7962  -4.7280  -4.4258
    -3.8822  -2.2866  -1.6611  -0.9569  -0.1907   0.1318   0.8141   1.6234
     1.6380

          k = 0.1429 0.5774 0.0000 ( 16478 PWs)   bands (ev):

   -20.9500 -20.6430 -19.8011 -18.8420 -17.6881 -17.1406 -16.7144 -16.4061
   -15.5308 -14.6287 -14.2119 -13.0373 -12.4743 -10.9072 -10.5937 -10.2629
    -9.8174  -9.6766  -9.1498  -8.9643  -8.8334  -8.5078  -8.3614  -7.9849
    -7.6344  -7.5662  -6.4947  -6.4057  -5.1457  -4.7366  -4.5250  -4.3335
    -4.1886  -2.3300  -1.8107  -1.0632  -0.3206   0.2781   0.6234   1.5596
     2.0224

          k = 0.2857 0.4949 0.0000 ( 16485 PWs)   bands (ev):

   -20.9186 -20.6277 -19.9790 -18.4163 -18.1033 -17.2465 -16.4993 -16.1696
   -15.5580 -14.7047 -14.5377 -13.0783 -11.9874 -11.3170 -10.6272 -10.0824
    -9.9501  -9.4727  -9.2377  -8.8837  -8.8060  -8.4629  -8.3887  -7.8594
    -7.8329  -7.3923  -6.8180  -5.9771  -5.6181  -4.8442  -4.4272  -4.2910
    -3.9889  -2.3184  -1.9241  -1.0413  -0.3147   0.0831   0.6358   1.9852
     1.9874

          k =-0.1429 0.0825 0.0000 ( 16463 PWs)   bands (ev):

   -21.3782 -19.6769 -19.3153 -19.0055 -18.6027 -18.4039 -16.9204 -15.4367
   -14.6481 -14.0823 -13.2878 -12.8915 -12.4773 -12.0757 -11.8478 -11.2790
   -10.2520 -10.0210  -9.3910  -8.6433  -8.2936  -8.1206  -7.5143  -7.3336
    -7.0027  -6.7019  -6.6230  -6.2014  -6.1956  -5.9384  -5.4743  -4.6344
    -2.8050  -1.9007  -1.1026  -0.9511  -0.7511   0.3191   1.1821   1.8413
     1.9164

          k = 0.1429 0.0825 0.0000 ( 16463 PWs)   bands (ev):

   -21.3783 -19.6640 -19.3419 -18.9877 -18.6114 -18.4009 -16.9222 -15.4166
   -14.6882 -14.0302 -13.3060 -12.8746 -12.5021 -12.0039 -11.9172 -11.3640
   -10.1726 -10.0236  -9.3917  -8.5826  -8.2554  -8.2032  -7.5035  -7.3514
    -6.9801  -6.6843  -6.5859  -6.2720  -6.1830  -5.9814  -5.4570  -4.6417
    -2.7864  -1.9396  -1.0618  -1.0460  -0.6613   0.3119   1.1821   1.9083
     1.9310

          k =-0.2857 0.1650 0.0000 ( 16473 PWs)   bands (ev):

   -21.2415 -20.1633 -19.5168 -19.0557 -18.1201 -17.7621 -16.6712 -16.1374
   -15.1056 -13.9407 -13.7565 -13.2760 -12.5445 -11.5329 -11.1534 -10.9883
    -9.8360  -9.6074  -9.2191  -9.0095  -8.6822  -8.2821  -7.9259  -7.6240
    -7.2321  -7.0140  -6.7677  -6.3770  -5.6602  -5.2784  -5.0371  -4.4361
    -3.5535  -2.1612  -1.3276  -0.8982  -0.4151   0.3072   1.0831   1.4030
     1.7785

          k = 0.2857 0.1650 0.0000 ( 16473 PWs)   bands (ev):

   -21.2423 -20.1508 -19.5415 -19.0406 -18.1281 -17.7638 -16.6829 -16.1215
   -15.0774 -13.8435 -13.7643 -13.3979 -12.5214 -11.4954 -11.3350 -11.0329
    -9.7701  -9.5064  -9.2224  -8.9324  -8.6400  -8.3162  -7.9339  -7.6138
    -7.2117  -6.8739  -6.7484  -6.6386  -5.6372  -5.3387  -4.9890  -4.4671
    -3.5376  -2.1644  -1.5157  -0.7364  -0.3611   0.3417   1.1139   1.4030
     1.7789

          k =-0.4286 0.2474 0.0000 ( 16506 PWs)   bands (ev):

   -21.0460 -20.5390 -19.6183 -19.0938 -17.5717 -17.1881 -16.8252 -16.5292
   -15.4276 -14.4846 -13.6618 -13.3258 -12.7190 -11.0562 -10.7545 -10.3088
    -9.9454  -9.4955  -9.1454  -8.9654  -8.6851  -8.4695  -8.3952  -7.7894
    -7.5620  -7.3477  -6.8142  -6.4634  -5.0426  -4.7496  -4.6276  -4.4184
    -4.2519  -2.3123  -1.7348  -0.9767  -0.1045   0.2806   0.9043   1.1923
     1.7688

          k = 0.4286 0.2474 0.0000 ( 16506 PWs)   bands (ev):

   -21.0505 -20.5235 -19.6427 -19.0793 -17.5824 -17.2000 -16.8013 -16.5775
   -15.3183 -14.4419 -13.6469 -13.4733 -12.6844 -11.2948 -10.6940 -10.3278
    -9.9057  -9.3930  -9.2025  -8.9754  -8.5378  -8.3929  -8.3000  -7.7779
    -7.5247  -7.3281  -6.7943  -6.7691  -5.0132  -4.8134  -4.5351  -4.4555
    -4.2742  -2.2832  -1.9810  -0.7969   0.0601   0.3103   0.8677   1.1619
     1.7685

          k =-0.1429 0.2474 0.0000 ( 16501 PWs)   bands (ev):

   -21.2860 -20.0255 -19.5579 -18.8759 -18.4214 -17.8644 -16.7461 -15.9528
   -14.8692 -14.1534 -13.6419 -13.2241 -12.1670 -11.9119 -11.4366 -10.8144
    -9.9988  -9.8121  -9.2742  -9.0096  -8.5778  -8.1584  -7.7292  -7.6319
    -7.3312  -6.8901  -6.5687  -6.2397  -6.0001  -5.3373  -5.1856  -4.4685
    -3.3615  -2.0860  -1.1062  -0.9701  -0.6139   0.3348   1.0963   1.3295
     2.0090

          k = 0.2857 0.0000 0.0000 ( 16501 PWs)   bands (ev):

   -21.2862 -20.0067 -19.5912 -18.8484 -18.4482 -17.8515 -16.7555 -15.9319
   -14.8991 -14.1416 -13.5617 -13.0988 -12.3471 -12.1297 -11.2619 -10.9694
   -10.1073  -9.5548  -9.2774  -8.8195  -8.5391  -8.2852  -7.7299  -7.5793
    -7.3499  -6.7668  -6.5347  -6.4641  -6.0187  -5.4122  -5.1377  -4.5119
    -3.3274  -2.0821  -1.3070  -0.7757  -0.6273   0.3930   1.2733   1.3294
     1.9541

          k =-0.1429 0.4124 0.0000 ( 16492 PWs)   bands (ev):

   -21.1110 -20.4070 -19.7407 -18.8389 -18.0301 -17.2079 -16.7586 -16.3365
   -15.2901 -14.3708 -14.1603 -13.0969 -12.3727 -11.2878 -10.7852 -10.5122
    -9.8111  -9.4633  -9.2451  -9.0500  -8.9568  -8.3805  -8.1987  -7.8316
    -7.5613  -7.2631  -6.5037  -6.3472  -5.5783  -4.7605  -4.7164  -4.3656
    -3.9877  -2.2733  -1.5445  -1.0548  -0.0891   0.0107   0.7121   1.6235
     1.7334

          k =-0.2857 0.3299 0.0000 ( 16492 PWs)   bands (ev):

   -21.1115 -20.3974 -19.7657 -18.8027 -18.0598 -17.1918 -16.7685 -16.3529
   -15.2411 -14.3851 -14.1622 -13.1067 -12.3625 -11.3209 -10.7774 -10.5908
    -9.8192  -9.4222  -9.1858  -9.0520  -8.9605  -8.2575  -8.1961  -7.9359
    -7.5700  -7.1677  -6.4769  -6.4655  -5.6110  -4.7485  -4.6951  -4.3868
    -4.0077  -2.2653  -1.5529  -1.0413  -0.0450   0.0359   0.6742   1.6234
     1.7676

          k = 0.4286 0.0825 0.0000 ( 16492 PWs)   bands (ev):

   -21.1134 -20.3824 -19.7858 -18.7930 -18.0724 -17.1963 -16.7857 -16.3185
   -15.2348 -14.3055 -14.2040 -12.9660 -12.5478 -11.5035 -10.9611 -10.4373
    -9.7644  -9.3224  -9.1107  -9.0602  -8.9152  -8.1917  -8.1822  -7.7892
    -7.5705  -7.1041  -6.8794  -6.4041  -5.5875  -4.8183  -4.6716  -4.5093
    -3.8821  -2.2489  -1.7812  -0.8517  -0.1983   0.2926   0.8228   1.6232
     1.6385

          k =-0.2857-0.3299 0.0000 ( 16492 PWs)   bands (ev):

   -21.1137 -20.3842 -19.7825 -18.7874 -18.0853 -17.1914 -16.7794 -16.3236
   -15.2208 -14.3191 -14.2203 -13.0328 -12.4723 -11.4468 -10.8884 -10.5247
    -9.7791  -9.3616  -9.0866  -9.0586  -8.8970  -8.2306  -8.1933  -7.8613
    -7.5670  -7.1530  -6.7200  -6.4151  -5.6203  -4.7725  -4.6784  -4.4627
    -3.9224  -2.2628  -1.7844  -0.8546  -0.0940   0.1955   0.7279   1.6233
     1.7011

          k = 0.4286-0.0825 0.0000 ( 16492 PWs)   bands (ev):

   -21.1121 -20.3907 -19.7754 -18.7976 -18.0694 -17.1929 -16.7847 -16.2987
   -15.3029 -14.3551 -14.1350 -12.9520 -12.5193 -11.5180 -10.8941 -10.4025
    -9.7571  -9.4290  -9.1818  -9.0570  -8.8659  -8.2680  -8.1883  -7.7102
    -7.5825  -7.3203  -6.6226  -6.4215  -5.5690  -4.8213  -4.7094  -4.4920
    -3.8620  -2.2638  -1.6632  -0.9436  -0.2494   0.2518   0.8710   1.6090
     1.6233

          k =-0.4286 0.4124 0.0000 ( 16478 PWs)   bands (ev):

   -20.9542 -20.6277 -19.8317 -18.8043 -17.7072 -17.1688 -16.6950 -16.4207
   -15.4732 -14.6345 -14.2230 -13.0168 -12.4954 -11.0322 -10.6373 -10.2218
    -9.8502  -9.6363  -9.1412  -8.8800  -8.8430  -8.4969  -8.2307  -7.9564
    -7.6461  -7.5379  -6.6113  -6.4471  -5.1618  -4.7636  -4.5042  -4.3580
    -4.1940  -2.3206  -1.8230  -1.0435  -0.2476   0.2742   0.6435   1.5735
     2.0208

          k = 0.5714 0.1650 0.0000 ( 16478 PWs)   bands (ev):

   -20.9614 -20.6110 -19.8462 -18.7958 -17.7288 -17.1505 -16.7008 -16.4632
   -15.3606 -14.5882 -14.3097 -12.9597 -12.5982 -11.1902 -10.5792 -10.2477
    -9.8154  -9.5856  -9.2331  -8.8569  -8.6453  -8.4881  -8.1625  -7.9223
    -7.6363  -7.4466  -6.9208  -6.4148  -5.1901  -4.7673  -4.4224  -4.3941
    -4.2137  -2.2968  -2.0370  -0.8905  -0.1188   0.2358   0.6880   1.5437
     2.0193

          k =-0.2857 0.4949 0.0000 ( 16485 PWs)   bands (ev):

   -20.9146 -20.6364 -19.9730 -18.4377 -18.0695 -17.2550 -16.4827 -16.2073
   -15.5397 -14.7565 -14.4976 -13.1081 -11.9500 -11.2040 -10.6258 -10.1838
    -9.9326  -9.4389  -9.3110  -8.8330  -8.7965  -8.4816  -8.4733  -7.9344
    -7.8579  -7.3257  -6.7136  -6.0297  -5.5857  -4.8059  -4.4650  -4.2001
    -4.0884  -2.3162  -1.8124  -1.1260  -0.3379   0.0895   0.5782   1.9877
     2.0194

          k = 0.5714 0.0000 0.0000 ( 16485 PWs)   bands (ev):

   -20.9199 -20.6224 -19.9865 -18.4078 -18.1022 -17.2602 -16.5056 -16.1520
   -15.5645 -14.6812 -14.5505 -13.0586 -11.9979 -11.3810 -10.6878 -10.0163
    -9.9163  -9.4507  -9.2002  -9.0134  -8.8108  -8.4569  -8.2774  -7.8629
    -7.7712  -7.3052  -7.0127  -5.9443  -5.6191  -4.8798  -4.4193  -4.3374
    -3.9489  -2.3120  -1.9258  -1.0355  -0.3256   0.0997   0.6801   1.9871
     1.9880

     the Fermi energy is    -2.2331 ev
     (compare with:    -2.2448 eV, computed in scf)

     Writing output data file ./outvac/vacancy.save/

     init_run     :      4.63s CPU      1.95s WALL (       1 calls)
     electrons    :   7361.39s CPU   1773.13s WALL (       1 calls)

     Called by init_run:
     wfcinit      :      0.00s CPU      0.00s WALL (       1 calls)
     potinit      :      1.49s CPU      0.49s WALL (       1 calls)
     hinit0       :      0.99s CPU      0.38s WALL (       1 calls)

     Called by electrons:
     c_bands      :   7361.38s CPU   1773.11s WALL (       1 calls)
     v_of_rho     :      1.31s CPU      0.41s WALL (       1 calls)
     newd         :      1.99s CPU      0.90s WALL (       1 calls)

     Called by c_bands:
     init_us_2    :      1.30s CPU      0.26s WALL (      50 calls)
     cegterg      :   6892.24s CPU   1658.29s WALL (     139 calls)

     Called by *egterg:
     cdiaghg      :     27.92s CPU      7.64s WALL (    2357 calls)
     h_psi        :   5757.83s CPU   1082.88s WALL (    2496 calls)
     s_psi        :    363.60s CPU    146.93s WALL (    2496 calls)
     g_psi        :     29.82s CPU      5.13s WALL (    2307 calls)

     Called by h_psi:
     h_psi:calbec :    459.54s CPU    212.85s WALL (    2496 calls)
     vloc_psi     :   5084.99s CPU    723.98s WALL (    2496 calls)
     add_vuspsi   :    185.05s CPU    141.45s WALL (    2496 calls)

     General routines
     calbec       :    459.48s CPU    212.84s WALL (    2496 calls)
     fft          :      0.82s CPU      0.30s WALL (      23 calls)
     ffts         :      0.01s CPU      0.02s WALL (       2 calls)
     fftw         :   3832.89s CPU    529.24s WALL (   90358 calls)
     interpolate  :      0.04s CPU      0.05s WALL (       2 calls)
     davcio       :      0.44s CPU      0.26s WALL (     100 calls)


     PWSCF        :      2h 2m CPU  29m36.37s WALL


   This run was terminated on:  19:46: 1   8Dec2021            

=------------------------------------------------------------------------------=
   JOB DONE.
=------------------------------------------------------------------------------=
